
     Program PWSCF v.7.3.1 starts on  8Apr2026 at  2:48:10 

     This program is part of the open-source Quantum ESPRESSO suite
     for quantum simulation of materials; please cite
         "P. Giannozzi et al., J. Phys.:Condens. Matter 21 395502 (2009);
         "P. Giannozzi et al., J. Phys.:Condens. Matter 29 465901 (2017);
         "P. Giannozzi et al., J. Chem. Phys. 152 154105 (2020);
          URL http://www.quantum-espresso.org", 
     in publications or presentations arising from this work. More details at
     http://www.quantum-espresso.org/quote

     Parallel version (MPI), running on   640 processors

     MPI processes distributed on     5 nodes
     481748 MiB available memory on the printing compute node when the environment starts

     Reading input from In1.0Ga0.0As0.75Sb0.25_cube_3x3x3.6.scf.in
Warning: card &CELL ignored
Warning: card   CELL_DOFREE = 'ALL', ignored
Warning: card / ignored

     Current dimensions of program PWSCF are:
     Max number of different atomic species (ntypx) = 10
     Max number of k-points (npk) =  40000
     Max angular momentum in pseudopotentials (lmaxx) =  4

     K-points division:     npool     =       8
     R & G space division:  proc/nbgrp/npool/nimage =      80
     Subspace diagonalization in iterative solution of the eigenvalue problem:
     one sub-group per band group will be used
     custom distributed-memory algorithm (size of sub-group:  8*  8 procs)


     Parallelization info
     --------------------
     sticks:   dense  smooth     PW     G-vecs:    dense   smooth      PW
     Min         589     589    151                96261    96261   12547
     Max         590     590    152                96268    96268   12552
     Sum       47161   47161  12109              7701093  7701093 1003865

     Using Slab Decomposition



     bravais-lattice index     =            1
     lattice parameter (alat)  =      35.1321  a.u.
     unit-cell volume          =   43362.2583 (a.u.)^3
     number of atoms/cell      =          216
     number of atomic types    =            4
     number of electrons       =      3024.00
     number of Kohn-Sham states=         2160
     kinetic-energy cutoff     =     120.0000  Ry
     charge density cutoff     =     480.0000  Ry
     scf convergence threshold =      1.0E-05
     mixing beta               =       0.6500
     number of iterations used =            8  plain     mixing
     Exchange-correlation= PBE
                           (   1   4   3   4   0   0   0)
     Hubbard projectors: atomic
     Hubbard parameters of DFT+U (Dudarev formulation) in eV:
     U(As-4p) =  3.2600
     U(Ga-4p) = -3.2650
     U(In-5p) = -0.9725
     U(Sb-5p) =  3.1600

     Internal variables: lda_plus_u =T, lda_plus_u_kind = 0

     celldm(1)=  35.132088  celldm(2)=   0.000000  celldm(3)=   0.000000
     celldm(4)=   0.000000  celldm(5)=   0.000000  celldm(6)=   0.000000

     crystal axes: (cart. coord. in units of alat)
               a(1) = (   1.000000   0.000000   0.000000 )  
               a(2) = (   0.000000   1.000000   0.000000 )  
               a(3) = (   0.000000   0.000000   1.000000 )  

     reciprocal axes: (cart. coord. in units 2 pi/alat)
               b(1) = (  1.000000  0.000000  0.000000 )  
               b(2) = (  0.000000  1.000000  0.000000 )  
               b(3) = (  0.000000  0.000000  1.000000 )  


     PseudoPot. # 1 for As read from file:
     /work/i254/i254/gentles/data/pseudos/As.pbe.NC-SR.standard.v0.5.UPF
     MD5 check sum: bfe1a874457ce592347346129958e7cf
     Pseudo is Norm-conserving + core correction, Zval = 15.0
     Generated using ONCVPSP code by D. R. Hamann
     Using radial grid of 1358 points,  6 beta functions with: 
                l(1) =   0
                l(2) =   0
                l(3) =   1
                l(4) =   1
                l(5) =   2
                l(6) =   2

     PseudoPot. # 2 for Ga read from file:
     /work/i254/i254/gentles/data/pseudos/Ga.pbe.NC-SR.standard.v0.5.UPF
     MD5 check sum: 2bb81bf6f0a8d9832cf3329850435ecf
     Pseudo is Norm-conserving + core correction, Zval = 13.0
     Generated using ONCVPSP code by D. R. Hamann
     Using radial grid of 1902 points,  6 beta functions with: 
                l(1) =   0
                l(2) =   0
                l(3) =   1
                l(4) =   1
                l(5) =   2
                l(6) =   2

     PseudoPot. # 3 for In read from file:
     /work/i254/i254/gentles/data/pseudos/In.pbe.NC-SR.standard.v0.5.UPF
     MD5 check sum: 835f4bf908c982ff75c88e16816a8d7f
     Pseudo is Norm-conserving + core correction, Zval = 13.0
     Generated using ONCVPSP code by D. R. Hamann
     Using radial grid of 1964 points,  6 beta functions with: 
                l(1) =   0
                l(2) =   0
                l(3) =   1
                l(4) =   1
                l(5) =   2
                l(6) =   2

     PseudoPot. # 4 for Sb read from file:
     /work/i254/i254/gentles/data/pseudos/Sb.pbe.NC-SR.standard.v0.5.UPF
     MD5 check sum: 127f69b6101c45666faeae1b5d611565
     Pseudo is Norm-conserving + core correction, Zval = 15.0
     Generated using ONCVPSP code by D. R. Hamann
     Using radial grid of 1434 points,  6 beta functions with: 
                l(1) =   0
                l(2) =   0
                l(3) =   1
                l(4) =   1
                l(5) =   2
                l(6) =   2

     atomic species   valence    mass     pseudopotential
     As               15.00    74.92160     As( 1.00)
     Ga               13.00    69.72300     Ga( 1.00)
     In               13.00   114.81800     In( 1.00)
     Sb               15.00   121.76000     Sb( 1.00)

     No symmetry found



   Cartesian axes

     site n.     atom                  positions (alat units)
         1        In     tau(   1) = (  -0.0014040   0.0005410  -0.0061280  )
         2        In     tau(   2) = (  -0.0032980   0.1712680   0.1704480  )
         3        In     tau(   3) = (   0.1714200  -0.0039150   0.1722430  )
         4        In     tau(   4) = (   0.1769960   0.1679100   0.0042160  )
         5        Sb     tau(   5) = (   0.0846110   0.0829950   0.0857810  )
         6        As     tau(   6) = (   0.0838000   0.2517610   0.2502430  )
         7        As     tau(   7) = (   0.2512090   0.0855340   0.2488340  )
         8        As     tau(   8) = (   0.2538610   0.2533530   0.0861280  )
         9        In     tau(   9) = (  -0.0001000  -0.0005710   0.3309390  )
        10        In     tau(  10) = (   0.0043860   0.1730540   0.4936110  )
        11        In     tau(  11) = (   0.1595790  -0.0001910   0.4979960  )
        12        In     tau(  12) = (   0.1664660   0.1663420   0.3316650  )
        13        As     tau(  13) = (   0.0816950   0.0840820   0.4126480  )
        14        As     tau(  14) = (   0.0855100   0.2541520   0.5782310  )
        15        Sb     tau(  15) = (   0.2501850   0.0865190   0.5816180  )
        16        As     tau(  16) = (   0.2475310   0.2512840   0.4135380  )
        17        In     tau(  17) = (   0.0033400  -0.0058250   0.6620010  )
        18        In     tau(  18) = (  -0.0044930   0.1634060   0.8384530  )
        19        In     tau(  19) = (   0.1687070   0.0012020   0.8437600  )
        20        In     tau(  20) = (   0.1659670   0.1767040   0.6674470  )
        21        Sb     tau(  21) = (   0.0845960   0.0827890   0.7511730  )
        22        Sb     tau(  22) = (   0.0857890   0.2512500   0.9203340  )
        23        As     tau(  23) = (   0.2544440   0.0840360   0.9201880  )
        24        As     tau(  24) = (   0.2529150   0.2515170   0.7501690  )
        25        In     tau(  25) = (  -0.0016530   0.3374530   0.0068520  )
        26        In     tau(  26) = (   0.0011770   0.5015920   0.1692820  )
        27        In     tau(  27) = (   0.1658370   0.3337070   0.1658790  )
        28        In     tau(  28) = (   0.1653000   0.4999910   0.0014840  )
        29        As     tau(  29) = (   0.0830960   0.4190000   0.0864240  )
        30        As     tau(  30) = (   0.0853730   0.5821320   0.2505690  )
        31        As     tau(  31) = (   0.2480420   0.4165360   0.2475120  )
        32        As     tau(  32) = (   0.2492230   0.5807510   0.0855400  )
        33        In     tau(  33) = (   0.0015420   0.3362420   0.3311800  )
        34        In     tau(  34) = (   0.0016580   0.5000720   0.4979090  )
        35        In     tau(  35) = (   0.1671740   0.3364530   0.4959340  )
        36        In     tau(  36) = (   0.1673530   0.4985750   0.3311390  )
        37        As     tau(  37) = (   0.0838340   0.4182530   0.4142660  )
        38        As     tau(  38) = (   0.0834420   0.5834560   0.5800720  )
        39        As     tau(  39) = (   0.2482750   0.4176150   0.5807540  )
        40        As     tau(  40) = (   0.2477320   0.5824600   0.4132050  )
        41        In     tau(  41) = (  -0.0003140   0.3348330   0.6572090  )
        42        In     tau(  42) = (  -0.0046140   0.5035900   0.8381020  )
        43        In     tau(  43) = (   0.1748130   0.3358750   0.8337540  )
        44        In     tau(  44) = (   0.1693240   0.5037740   0.6616880  )
        45        Sb     tau(  45) = (   0.0830250   0.4193210   0.7492240  )
        46        As     tau(  46) = (   0.0819160   0.5834510   0.9187200  )
        47        As     tau(  47) = (   0.2510080   0.4186870   0.9206790  )
        48        As     tau(  48) = (   0.2493160   0.5809950   0.7510940  )
        49        In     tau(  49) = (  -0.0000100   0.6663040   0.0023880  )
        50        In     tau(  50) = (   0.0072850   0.8326030   0.1672830  )
        51        In     tau(  51) = (   0.1672250   0.6641980   0.1667220  )
        52        In     tau(  52) = (   0.1637610   0.8356030   0.0070130  )
        53        As     tau(  53) = (   0.0845970   0.7474420   0.0851400  )
        54        As     tau(  54) = (   0.0853330   0.9156730   0.2516240  )
        55        As     tau(  55) = (   0.2492200   0.7474340   0.2481470  )
        56        As     tau(  56) = (   0.2509420   0.9158840   0.0855350  )
        57        In     tau(  57) = (   0.0021680   0.6600590   0.3356340  )
        58        In     tau(  58) = (  -0.0024340   0.8305570   0.4968060  )
        59        In     tau(  59) = (   0.1623350   0.6633360   0.4930450  )
        60        In     tau(  60) = (   0.1637550   0.8268570   0.3299050  )
        61        As     tau(  61) = (   0.0806060   0.7478160   0.4144020  )
        62        As     tau(  62) = (   0.0812850   0.9117840   0.5787270  )
        63        Sb     tau(  63) = (   0.2497180   0.7461140   0.5818780  )
        64        Sb     tau(  64) = (   0.2514030   0.9161400   0.4133910  )
        65        In     tau(  65) = (   0.0010030   0.6649520   0.6641940  )
        66        In     tau(  66) = (   0.0047680   0.8281160   0.8400740  )
        67        In     tau(  67) = (   0.1628700   0.6623500   0.8298400  )
        68        In     tau(  68) = (   0.1598970   0.8312150   0.6664640  )
        69        As     tau(  69) = (   0.0806610   0.7469650   0.7499340  )
        70        As     tau(  70) = (   0.0845550   0.9154060   0.9199750  )
        71        Sb     tau(  71) = (   0.2489340   0.7473610   0.9202820  )
        72        Sb     tau(  72) = (   0.2497390   0.9174010   0.7511530  )
        73        In     tau(  73) = (   0.3334010  -0.0011160   0.0023230  )
        74        In     tau(  74) = (   0.3338020   0.1663970   0.1657140  )
        75        In     tau(  75) = (   0.4966290  -0.0046670   0.1620670  )
        76        In     tau(  76) = (   0.4955560   0.1609300  -0.0029890  )
        77        As     tau(  77) = (   0.4146050   0.0815340   0.0835070  )
        78        As     tau(  78) = (   0.4123660   0.2493300   0.2496440  )
        79        Sb     tau(  79) = (   0.5821870   0.0839620   0.2482100  )
        80        Sb     tau(  80) = (   0.5816320   0.2505460   0.0818370  )
        81        In     tau(  81) = (   0.3373820   0.0046440   0.3273670  )
        82        In     tau(  82) = (   0.3355980   0.1720740   0.4932100  )
        83        In     tau(  83) = (   0.4926750   0.0016150   0.4977680  )
        84        In     tau(  84) = (   0.4971900   0.1725010   0.3340810  )
        85        As     tau(  85) = (   0.4161210   0.0868720   0.4131330  )
        86        As     tau(  86) = (   0.4164520   0.2510000   0.5819730  )
        87        Sb     tau(  87) = (   0.5814080   0.0849170   0.5848880  )
        88        As     tau(  88) = (   0.5836370   0.2505840   0.4149020  )
        89        In     tau(  89) = (   0.3405190   0.0007720   0.6663430  )
        90        In     tau(  90) = (   0.3333570   0.1658230   0.8330550  )
        91        In     tau(  91) = (   0.5011970  -0.0004550   0.8351520  )
        92        In     tau(  92) = (   0.4950780   0.1718450   0.6718820  )
        93        As     tau(  93) = (   0.4183350   0.0833660   0.7529780  )
        94        As     tau(  94) = (   0.4141320   0.2482390   0.9181860  )
        95        As     tau(  95) = (   0.5837740   0.0819600   0.9172790  )
        96        As     tau(  96) = (   0.5815590   0.2503920   0.7540670  )
        97        In     tau(  97) = (   0.3341980   0.3346900   0.0011400  )
        98        In     tau(  98) = (   0.3321690   0.4997970   0.1680260  )
        99        In     tau(  99) = (   0.4909980   0.3337490   0.1675310  )
       100        In     tau( 100) = (   0.4998900   0.4985250   0.0031220  )
       101        As     tau( 101) = (   0.4140800   0.4184190   0.0841230  )
       102        As     tau( 102) = (   0.4145340   0.5858770   0.2489890  )
       103        Sb     tau( 103) = (   0.5836590   0.4183230   0.2495500  )
       104        As     tau( 104) = (   0.5814520   0.5836770   0.0837660  )
       105        In     tau( 105) = (   0.3271820   0.3311560   0.3277810  )
       106        In     tau( 106) = (   0.3282130   0.5031020   0.5002330  )
       107        In     tau( 107) = (   0.5040880   0.3307960   0.5020000  )
       108        In     tau( 108) = (   0.5000850   0.5097090   0.3336470  )
       109        Sb     tau( 109) = (   0.4154390   0.4162730   0.4151850  )
       110        As     tau( 110) = (   0.4146560   0.5836440   0.5791380  )
       111        As     tau( 111) = (   0.5841450   0.4179020   0.5800850  )
       112        As     tau( 112) = (   0.5857300   0.5863010   0.4174750  )
       113        In     tau( 113) = (   0.3299300   0.3320690   0.6613340  )
       114        In     tau( 114) = (   0.3306820   0.5038660   0.8392800  )
       115        In     tau( 115) = (   0.5015410   0.3298470   0.8402380  )
       116        In     tau( 116) = (   0.4981790   0.5002120   0.6569550  )
       117        Sb     tau( 117) = (   0.4159170   0.4164860   0.7508150  )
       118        As     tau( 118) = (   0.4170600   0.5819800   0.9224330  )
       119        As     tau( 119) = (   0.5818460   0.4156920   0.9209050  )
       120        Sb     tau( 120) = (   0.5817210   0.5841810   0.7487530  )
       121        In     tau( 121) = (   0.3364630   0.6621980   0.0076990  )
       122        In     tau( 122) = (   0.3320080   0.8310060   0.1661330  )
       123        In     tau( 123) = (   0.4998600   0.6660770   0.1668580  )
       124        In     tau( 124) = (   0.5001200   0.8337390   0.0018910  )
       125        As     tau( 125) = (   0.4181200   0.7499650   0.0852640  )
       126        As     tau( 126) = (   0.4146260   0.9148930   0.2462190  )
       127        As     tau( 127) = (   0.5842510   0.7479040   0.2477460  )
       128        As     tau( 128) = (   0.5839140   0.9152490   0.0836530  )
       129        In     tau( 129) = (   0.3311290   0.6661880   0.3328230  )
       130        In     tau( 130) = (   0.3411650   0.8318900   0.4994690  )
       131        In     tau( 131) = (   0.4996670   0.6664360   0.4987000  )
       132        In     tau( 132) = (   0.4958450   0.8282010   0.3257270  )
       133        As     tau( 133) = (   0.4175040   0.7471690   0.4136220  )
       134        As     tau( 134) = (   0.4194760   0.9161730   0.5830030  )
       135        As     tau( 135) = (   0.5835510   0.7463860   0.5825430  )
       136        Sb     tau( 136) = (   0.5810270   0.9138070   0.4140170  )
       137        In     tau( 137) = (   0.3344610   0.6591360   0.6692480  )
       138        In     tau( 138) = (   0.3378630   0.8365310   0.8396650  )
       139        In     tau( 139) = (   0.5002550   0.6664540   0.8436940  )
       140        In     tau( 140) = (   0.5069510   0.8361240   0.6622290  )
       141        Sb     tau( 141) = (   0.4203450   0.7507180   0.7505580  )
       142        As     tau( 142) = (   0.4193130   0.9191670   0.9210130  )
       143        As     tau( 143) = (   0.5830190   0.7524630   0.9198480  )
       144        As     tau( 144) = (   0.5829310   0.9153500   0.7528660  )
       145        In     tau( 145) = (   0.6656980  -0.0005100   0.0020170  )
       146        In     tau( 146) = (   0.6739510   0.1688290   0.1665810  )
       147        In     tau( 147) = (   0.8311200   0.0032790   0.1700190  )
       148        In     tau( 148) = (   0.8328570   0.1677950   0.0038350  )
       149        As     tau( 149) = (   0.7505860   0.0829770   0.0836120  )
       150        As     tau( 150) = (   0.7536880   0.2510500   0.2517490  )
       151        As     tau( 151) = (   0.9165340   0.0844890   0.2511420  )
       152        As     tau( 152) = (   0.9144580   0.2524340   0.0862330  )
       153        In     tau( 153) = (   0.6720670  -0.0008430   0.3314790  )
       154        In     tau( 154) = (   0.6666600   0.1639310   0.4898280  )
       155        In     tau( 155) = (   0.8342220  -0.0000750   0.4910220  )
       156        In     tau( 156) = (   0.8366940   0.1688420   0.3332790  )
       157        As     tau( 157) = (   0.7528730   0.0838070   0.4108040  )
       158        Sb     tau( 158) = (   0.7481960   0.2513980   0.5791910  )
       159        Sb     tau( 159) = (   0.9180250   0.0852800   0.5800040  )
       160        As     tau( 160) = (   0.9190910   0.2543600   0.4134320  )
       161        In     tau( 161) = (   0.6660700  -0.0010410   0.6748830  )
       162        In     tau( 162) = (   0.6654130   0.1683680   0.8366200  )
       163        In     tau( 163) = (   0.8278350   0.0014820   0.8396780  )
       164        In     tau( 164) = (   0.8262400   0.1620040   0.6707800  )
       165        As     tau( 165) = (   0.7462040   0.0827700   0.7564000  )
       166        As     tau( 166) = (   0.7499610   0.2497080   0.9202040  )
       167        As     tau( 167) = (   0.9117160   0.0841490   0.9195450  )
       168        Sb     tau( 168) = (   0.9156190   0.2513280   0.7496540  )
       169        In     tau( 169) = (   0.6707120   0.3379000  -0.0006670  )
       170        In     tau( 170) = (   0.6699410   0.5035090   0.1620170  )
       171        In     tau( 171) = (   0.8333050   0.3354130   0.1690480  )
       172        In     tau( 172) = (   0.8385190   0.4984840   0.0060530  )
       173        As     tau( 173) = (   0.7528180   0.4176220   0.0845890  )
       174        As     tau( 174) = (   0.7499990   0.5832410   0.2484870  )
       175        As     tau( 175) = (   0.9174600   0.4183480   0.2495410  )
       176        As     tau( 176) = (   0.9192110   0.5831230   0.0858010  )
       177        In     tau( 177) = (   0.6705030   0.3312640   0.3358740  )
       178        In     tau( 178) = (   0.6683820   0.5003490   0.4980830  )
       179        In     tau( 179) = (   0.8379190   0.3391720   0.4953310  )
       180        In     tau( 180) = (   0.8334510   0.5005790   0.3308580  )
       181        As     tau( 181) = (   0.7515390   0.4186800   0.4146940  )
       182        As     tau( 182) = (   0.7517440   0.5843830   0.5798360  )
       183        As     tau( 183) = (   0.9179380   0.4204860   0.5795130  )
       184        As     tau( 184) = (   0.9169410   0.5799710   0.4157500  )
       185        In     tau( 185) = (   0.6585550   0.3336680   0.6671350  )
       186        In     tau( 186) = (   0.6620680   0.4973110   0.8382730  )
       187        In     tau( 187) = (   0.8341710   0.3340800   0.8429290  )
       188        In     tau( 188) = (   0.8368810   0.5045090   0.6623770  )
       189        Sb     tau( 189) = (   0.7510090   0.4170150   0.7503110  )
       190        Sb     tau( 190) = (   0.7507840   0.5854210   0.9207350  )
       191        As     tau( 191) = (   0.9175500   0.4178540   0.9216750  )
       192        As     tau( 192) = (   0.9178860   0.5848670   0.7483680  )
       193        In     tau( 193) = (   0.6611700   0.6711840   0.0052480  )
       194        In     tau( 194) = (   0.6667100   0.8337360   0.1676380  )
       195        In     tau( 195) = (   0.8299930   0.6635870   0.1626350  )
       196        In     tau( 196) = (   0.8281450   0.8276040  -0.0031090  )
       197        As     tau( 197) = (   0.7471640   0.7498470   0.0848160  )
       198        As     tau( 198) = (   0.7504820   0.9161840   0.2491830  )
       199        Sb     tau( 199) = (   0.9167020   0.7478250   0.2503520  )
       200        Sb     tau( 200) = (   0.9151010   0.9148720   0.0826420  )
       201        In     tau( 201) = (   0.6677510   0.6665130   0.3314200  )
       202        In     tau( 202) = (   0.6653640   0.8233130   0.4981150  )
       203        In     tau( 203) = (   0.8349490   0.6646820   0.4961570  )
       204        In     tau( 204) = (   0.8302660   0.8354610   0.3350710  )
       205        As     tau( 205) = (   0.7511860   0.7472590   0.4145850  )
       206        Sb     tau( 206) = (   0.7499500   0.9146070   0.5820620  )
       207        As     tau( 207) = (   0.9177100   0.7456380   0.5802570  )
       208        As     tau( 208) = (   0.9177020   0.9157520   0.4132780  )
       209        In     tau( 209) = (   0.6714290   0.6683330   0.6637540  )
       210        In     tau( 210) = (   0.6657750   0.8321400   0.8337940  )
       211        In     tau( 211) = (   0.8365370   0.6691200   0.8294390  )
       212        In     tau( 212) = (   0.8355250   0.8249020   0.6657400  )
       213        As     tau( 213) = (   0.7498990   0.7498950   0.7501610  )
       214        As     tau( 214) = (   0.7462170   0.9148880   0.9183980  )
       215        As     tau( 215) = (   0.9172300   0.7472990   0.9182660  )
       216        Sb     tau( 216) = (   0.9169200   0.9141510   0.7543640  )

     number of k points=     8
                       cart. coord. in units 2pi/alat
        k(    1) = (   0.0000000   0.0000000   0.0000000), wk =   0.2500000
        k(    2) = (   0.0000000   0.0000000  -0.5000000), wk =   0.2500000
        k(    3) = (   0.0000000  -0.5000000  -0.5000000), wk =   0.2500000
        k(    4) = (  -0.5000000  -0.5000000  -0.5000000), wk =   0.2500000
        k(    5) = (  -0.5000000   0.0000000   0.0000000), wk =   0.2500000
        k(    6) = (   0.0000000  -0.5000000   0.0000000), wk =   0.2500000
        k(    7) = (  -0.5000000   0.0000000   0.5000000), wk =   0.2500000
        k(    8) = (  -0.5000000   0.5000000   0.0000000), wk =   0.2500000

     Dense  grid:  7701093 G-vectors     FFT dimensions: ( 250, 250, 250)

     Estimated max dynamical RAM per process >       2.96 GB

     Estimated total dynamical RAM >    1880.97 GB

     Initial potential from superposition of free atoms

     starting charge    3023.5448, renormalised to    3024.0000

     STARTING HUBBARD OCCUPATIONS:

     =================== HUBBARD OCCUPATIONS ===================
     ------------------------ ATOM    1 ------------------------
     Tr[ns(  1)] =   1.00000
     eigenvalues:
       0.167  0.167  0.167
     eigenvectors (columns):
       1.000  0.000  0.000
       0.000  1.000  0.000
       0.000  0.000  1.000
     occupation matrix ns (before diag.):
       0.167  0.000  0.000
       0.000  0.167  0.000
       0.000  0.000  0.167
     ------------------------ ATOM    2 ------------------------
     Tr[ns(  2)] =   1.00000
     eigenvalues:
       0.167  0.167  0.167
     eigenvectors (columns):
       1.000  0.000  0.000
       0.000  1.000  0.000
       0.000  0.000  1.000
     occupation matrix ns (before diag.):
       0.167  0.000  0.000
       0.000  0.167  0.000
       0.000  0.000  0.167
     ------------------------ ATOM    3 ------------------------
     Tr[ns(  3)] =   1.00000
     eigenvalues:
       0.167  0.167  0.167
     eigenvectors (columns):
       1.000  0.000  0.000
       0.000  1.000  0.000
       0.000  0.000  1.000
     occupation matrix ns (before diag.):
       0.167  0.000  0.000
       0.000  0.167  0.000
       0.000  0.000  0.167
     ------------------------ ATOM    4 ------------------------
     Tr[ns(  4)] =   1.00000
     eigenvalues:
       0.167  0.167  0.167
     eigenvectors (columns):
       1.000  0.000  0.000
       0.000  1.000  0.000
       0.000  0.000  1.000
     occupation matrix ns (before diag.):
       0.167  0.000  0.000
       0.000  0.167  0.000
       0.000  0.000  0.167
     ------------------------ ATOM    5 ------------------------
     Tr[ns(  5)] =   3.00000
     eigenvalues:
       0.500  0.500  0.500
     eigenvectors (columns):
       1.000  0.000  0.000
       0.000  1.000  0.000
       0.000  0.000  1.000
     occupation matrix ns (before diag.):
       0.500  0.000  0.000
       0.000  0.500  0.000
       0.000  0.000  0.500
     ------------------------ ATOM    6 ------------------------
     Tr[ns(  6)] =   3.00000
     eigenvalues:
       0.500  0.500  0.500
     eigenvectors (columns):
       1.000  0.000  0.000
       0.000  1.000  0.000
       0.000  0.000  1.000
     occupation matrix ns (before diag.):
       0.500  0.000  0.000
       0.000  0.500  0.000
       0.000  0.000  0.500
     ------------------------ ATOM    7 ------------------------
     Tr[ns(  7)] =   3.00000
     eigenvalues:
       0.500  0.500  0.500
     eigenvectors (columns):
       1.000  0.000  0.000
       0.000  1.000  0.000
       0.000  0.000  1.000
     occupation matrix ns (before diag.):
       0.500  0.000  0.000
       0.000  0.500  0.000
       0.000  0.000  0.500
     ------------------------ ATOM    8 ------------------------
     Tr[ns(  8)] =   3.00000
     eigenvalues:
       0.500  0.500  0.500
     eigenvectors (columns):
       1.000  0.000  0.000
       0.000  1.000  0.000
       0.000  0.000  1.000
     occupation matrix ns (before diag.):
       0.500  0.000  0.000
       0.000  0.500  0.000
       0.000  0.000  0.500
     ------------------------ ATOM    9 ------------------------
     Tr[ns(  9)] =   1.00000
     eigenvalues:
       0.167  0.167  0.167
     eigenvectors (columns):
       1.000  0.000  0.000
       0.000  1.000  0.000
       0.000  0.000  1.000
     occupation matrix ns (before diag.):
       0.167  0.000  0.000
       0.000  0.167  0.000
       0.000  0.000  0.167
     ------------------------ ATOM   10 ------------------------
     Tr[ns( 10)] =   1.00000
     eigenvalues:
       0.167  0.167  0.167
     eigenvectors (columns):
       1.000  0.000  0.000
       0.000  1.000  0.000
       0.000  0.000  1.000
     occupation matrix ns (before diag.):
       0.167  0.000  0.000
       0.000  0.167  0.000
       0.000  0.000  0.167
     ------------------------ ATOM   11 ------------------------
     Tr[ns( 11)] =   1.00000
     eigenvalues:
       0.167  0.167  0.167
     eigenvectors (columns):
       1.000  0.000  0.000
       0.000  1.000  0.000
       0.000  0.000  1.000
     occupation matrix ns (before diag.):
       0.167  0.000  0.000
       0.000  0.167  0.000
       0.000  0.000  0.167
     ------------------------ ATOM   12 ------------------------
     Tr[ns( 12)] =   1.00000
     eigenvalues:
       0.167  0.167  0.167
     eigenvectors (columns):
       1.000  0.000  0.000
       0.000  1.000  0.000
       0.000  0.000  1.000
     occupation matrix ns (before diag.):
       0.167  0.000  0.000
       0.000  0.167  0.000
       0.000  0.000  0.167
     ------------------------ ATOM   13 ------------------------
     Tr[ns( 13)] =   3.00000
     eigenvalues:
       0.500  0.500  0.500
     eigenvectors (columns):
       1.000  0.000  0.000
       0.000  1.000  0.000
       0.000  0.000  1.000
     occupation matrix ns (before diag.):
       0.500  0.000  0.000
       0.000  0.500  0.000
       0.000  0.000  0.500
     ------------------------ ATOM   14 ------------------------
     Tr[ns( 14)] =   3.00000
     eigenvalues:
       0.500  0.500  0.500
     eigenvectors (columns):
       1.000  0.000  0.000
       0.000  1.000  0.000
       0.000  0.000  1.000
     occupation matrix ns (before diag.):
       0.500  0.000  0.000
       0.000  0.500  0.000
       0.000  0.000  0.500
     ------------------------ ATOM   15 ------------------------
     Tr[ns( 15)] =   3.00000
     eigenvalues:
       0.500  0.500  0.500
     eigenvectors (columns):
       1.000  0.000  0.000
       0.000  1.000  0.000
       0.000  0.000  1.000
     occupation matrix ns (before diag.):
       0.500  0.000  0.000
       0.000  0.500  0.000
       0.000  0.000  0.500
     ------------------------ ATOM   16 ------------------------
     Tr[ns( 16)] =   3.00000
     eigenvalues:
       0.500  0.500  0.500
     eigenvectors (columns):
       1.000  0.000  0.000
       0.000  1.000  0.000
       0.000  0.000  1.000
     occupation matrix ns (before diag.):
       0.500  0.000  0.000
       0.000  0.500  0.000
       0.000  0.000  0.500
     ------------------------ ATOM   17 ------------------------
     Tr[ns( 17)] =   1.00000
     eigenvalues:
       0.167  0.167  0.167
     eigenvectors (columns):
       1.000  0.000  0.000
       0.000  1.000  0.000
       0.000  0.000  1.000
     occupation matrix ns (before diag.):
       0.167  0.000  0.000
       0.000  0.167  0.000
       0.000  0.000  0.167
     ------------------------ ATOM   18 ------------------------
     Tr[ns( 18)] =   1.00000
     eigenvalues:
       0.167  0.167  0.167
     eigenvectors (columns):
       1.000  0.000  0.000
       0.000  1.000  0.000
       0.000  0.000  1.000
     occupation matrix ns (before diag.):
       0.167  0.000  0.000
       0.000  0.167  0.000
       0.000  0.000  0.167
     ------------------------ ATOM   19 ------------------------
     Tr[ns( 19)] =   1.00000
     eigenvalues:
       0.167  0.167  0.167
     eigenvectors (columns):
       1.000  0.000  0.000
       0.000  1.000  0.000
       0.000  0.000  1.000
     occupation matrix ns (before diag.):
       0.167  0.000  0.000
       0.000  0.167  0.000
       0.000  0.000  0.167
     ------------------------ ATOM   20 ------------------------
     Tr[ns( 20)] =   1.00000
     eigenvalues:
       0.167  0.167  0.167
     eigenvectors (columns):
       1.000  0.000  0.000
       0.000  1.000  0.000
       0.000  0.000  1.000
     occupation matrix ns (before diag.):
       0.167  0.000  0.000
       0.000  0.167  0.000
       0.000  0.000  0.167
     ------------------------ ATOM   21 ------------------------
     Tr[ns( 21)] =   3.00000
     eigenvalues:
       0.500  0.500  0.500
     eigenvectors (columns):
       1.000  0.000  0.000
       0.000  1.000  0.000
       0.000  0.000  1.000
     occupation matrix ns (before diag.):
       0.500  0.000  0.000
       0.000  0.500  0.000
       0.000  0.000  0.500
     ------------------------ ATOM   22 ------------------------
     Tr[ns( 22)] =   3.00000
     eigenvalues:
       0.500  0.500  0.500
     eigenvectors (columns):
       1.000  0.000  0.000
       0.000  1.000  0.000
       0.000  0.000  1.000
     occupation matrix ns (before diag.):
       0.500  0.000  0.000
       0.000  0.500  0.000
       0.000  0.000  0.500
     ------------------------ ATOM   23 ------------------------
     Tr[ns( 23)] =   3.00000
     eigenvalues:
       0.500  0.500  0.500
     eigenvectors (columns):
       1.000  0.000  0.000
       0.000  1.000  0.000
       0.000  0.000  1.000
     occupation matrix ns (before diag.):
       0.500  0.000  0.000
       0.000  0.500  0.000
       0.000  0.000  0.500
     ------------------------ ATOM   24 ------------------------
     Tr[ns( 24)] =   3.00000
     eigenvalues:
       0.500  0.500  0.500
     eigenvectors (columns):
       1.000  0.000  0.000
       0.000  1.000  0.000
       0.000  0.000  1.000
     occupation matrix ns (before diag.):
       0.500  0.000  0.000
       0.000  0.500  0.000
       0.000  0.000  0.500
     ------------------------ ATOM   25 ------------------------
     Tr[ns( 25)] =   1.00000
     eigenvalues:
       0.167  0.167  0.167
     eigenvectors (columns):
       1.000  0.000  0.000
       0.000  1.000  0.000
       0.000  0.000  1.000
     occupation matrix ns (before diag.):
       0.167  0.000  0.000
       0.000  0.167  0.000
       0.000  0.000  0.167
     ------------------------ ATOM   26 ------------------------
     Tr[ns( 26)] =   1.00000
     eigenvalues:
       0.167  0.167  0.167
     eigenvectors (columns):
       1.000  0.000  0.000
       0.000  1.000  0.000
       0.000  0.000  1.000
     occupation matrix ns (before diag.):
       0.167  0.000  0.000
       0.000  0.167  0.000
       0.000  0.000  0.167
     ------------------------ ATOM   27 ------------------------
     Tr[ns( 27)] =   1.00000
     eigenvalues:
       0.167  0.167  0.167
     eigenvectors (columns):
       1.000  0.000  0.000
       0.000  1.000  0.000
       0.000  0.000  1.000
     occupation matrix ns (before diag.):
       0.167  0.000  0.000
       0.000  0.167  0.000
       0.000  0.000  0.167
     ------------------------ ATOM   28 ------------------------
     Tr[ns( 28)] =   1.00000
     eigenvalues:
       0.167  0.167  0.167
     eigenvectors (columns):
       1.000  0.000  0.000
       0.000  1.000  0.000
       0.000  0.000  1.000
     occupation matrix ns (before diag.):
       0.167  0.000  0.000
       0.000  0.167  0.000
       0.000  0.000  0.167
     ------------------------ ATOM   29 ------------------------
     Tr[ns( 29)] =   3.00000
     eigenvalues:
       0.500  0.500  0.500
     eigenvectors (columns):
       1.000  0.000  0.000
       0.000  1.000  0.000
       0.000  0.000  1.000
     occupation matrix ns (before diag.):
       0.500  0.000  0.000
       0.000  0.500  0.000
       0.000  0.000  0.500
     ------------------------ ATOM   30 ------------------------
     Tr[ns( 30)] =   3.00000
     eigenvalues:
       0.500  0.500  0.500
     eigenvectors (columns):
       1.000  0.000  0.000
       0.000  1.000  0.000
       0.000  0.000  1.000
     occupation matrix ns (before diag.):
       0.500  0.000  0.000
       0.000  0.500  0.000
       0.000  0.000  0.500
     ------------------------ ATOM   31 ------------------------
     Tr[ns( 31)] =   3.00000
     eigenvalues:
       0.500  0.500  0.500
     eigenvectors (columns):
       1.000  0.000  0.000
       0.000  1.000  0.000
       0.000  0.000  1.000
     occupation matrix ns (before diag.):
       0.500  0.000  0.000
       0.000  0.500  0.000
       0.000  0.000  0.500
     ------------------------ ATOM   32 ------------------------
     Tr[ns( 32)] =   3.00000
     eigenvalues:
       0.500  0.500  0.500
     eigenvectors (columns):
       1.000  0.000  0.000
       0.000  1.000  0.000
       0.000  0.000  1.000
     occupation matrix ns (before diag.):
       0.500  0.000  0.000
       0.000  0.500  0.000
       0.000  0.000  0.500
     ------------------------ ATOM   33 ------------------------
     Tr[ns( 33)] =   1.00000
     eigenvalues:
       0.167  0.167  0.167
     eigenvectors (columns):
       1.000  0.000  0.000
       0.000  1.000  0.000
       0.000  0.000  1.000
     occupation matrix ns (before diag.):
       0.167  0.000  0.000
       0.000  0.167  0.000
       0.000  0.000  0.167
     ------------------------ ATOM   34 ------------------------
     Tr[ns( 34)] =   1.00000
     eigenvalues:
       0.167  0.167  0.167
     eigenvectors (columns):
       1.000  0.000  0.000
       0.000  1.000  0.000
       0.000  0.000  1.000
     occupation matrix ns (before diag.):
       0.167  0.000  0.000
       0.000  0.167  0.000
       0.000  0.000  0.167
     ------------------------ ATOM   35 ------------------------
     Tr[ns( 35)] =   1.00000
     eigenvalues:
       0.167  0.167  0.167
     eigenvectors (columns):
       1.000  0.000  0.000
       0.000  1.000  0.000
       0.000  0.000  1.000
     occupation matrix ns (before diag.):
       0.167  0.000  0.000
       0.000  0.167  0.000
       0.000  0.000  0.167
     ------------------------ ATOM   36 ------------------------
     Tr[ns( 36)] =   1.00000
     eigenvalues:
       0.167  0.167  0.167
     eigenvectors (columns):
       1.000  0.000  0.000
       0.000  1.000  0.000
       0.000  0.000  1.000
     occupation matrix ns (before diag.):
       0.167  0.000  0.000
       0.000  0.167  0.000
       0.000  0.000  0.167
     ------------------------ ATOM   37 ------------------------
     Tr[ns( 37)] =   3.00000
     eigenvalues:
       0.500  0.500  0.500
     eigenvectors (columns):
       1.000  0.000  0.000
       0.000  1.000  0.000
       0.000  0.000  1.000
     occupation matrix ns (before diag.):
       0.500  0.000  0.000
       0.000  0.500  0.000
       0.000  0.000  0.500
     ------------------------ ATOM   38 ------------------------
     Tr[ns( 38)] =   3.00000
     eigenvalues:
       0.500  0.500  0.500
     eigenvectors (columns):
       1.000  0.000  0.000
       0.000  1.000  0.000
       0.000  0.000  1.000
     occupation matrix ns (before diag.):
       0.500  0.000  0.000
       0.000  0.500  0.000
       0.000  0.000  0.500
     ------------------------ ATOM   39 ------------------------
     Tr[ns( 39)] =   3.00000
     eigenvalues:
       0.500  0.500  0.500
     eigenvectors (columns):
       1.000  0.000  0.000
       0.000  1.000  0.000
       0.000  0.000  1.000
     occupation matrix ns (before diag.):
       0.500  0.000  0.000
       0.000  0.500  0.000
       0.000  0.000  0.500
     ------------------------ ATOM   40 ------------------------
     Tr[ns( 40)] =   3.00000
     eigenvalues:
       0.500  0.500  0.500
     eigenvectors (columns):
       1.000  0.000  0.000
       0.000  1.000  0.000
       0.000  0.000  1.000
     occupation matrix ns (before diag.):
       0.500  0.000  0.000
       0.000  0.500  0.000
       0.000  0.000  0.500
     ------------------------ ATOM   41 ------------------------
     Tr[ns( 41)] =   1.00000
     eigenvalues:
       0.167  0.167  0.167
     eigenvectors (columns):
       1.000  0.000  0.000
       0.000  1.000  0.000
       0.000  0.000  1.000
     occupation matrix ns (before diag.):
       0.167  0.000  0.000
       0.000  0.167  0.000
       0.000  0.000  0.167
     ------------------------ ATOM   42 ------------------------
     Tr[ns( 42)] =   1.00000
     eigenvalues:
       0.167  0.167  0.167
     eigenvectors (columns):
       1.000  0.000  0.000
       0.000  1.000  0.000
       0.000  0.000  1.000
     occupation matrix ns (before diag.):
       0.167  0.000  0.000
       0.000  0.167  0.000
       0.000  0.000  0.167
     ------------------------ ATOM   43 ------------------------
     Tr[ns( 43)] =   1.00000
     eigenvalues:
       0.167  0.167  0.167
     eigenvectors (columns):
       1.000  0.000  0.000
       0.000  1.000  0.000
       0.000  0.000  1.000
     occupation matrix ns (before diag.):
       0.167  0.000  0.000
       0.000  0.167  0.000
       0.000  0.000  0.167
     ------------------------ ATOM   44 ------------------------
     Tr[ns( 44)] =   1.00000
     eigenvalues:
       0.167  0.167  0.167
     eigenvectors (columns):
       1.000  0.000  0.000
       0.000  1.000  0.000
       0.000  0.000  1.000
     occupation matrix ns (before diag.):
       0.167  0.000  0.000
       0.000  0.167  0.000
       0.000  0.000  0.167
     ------------------------ ATOM   45 ------------------------
     Tr[ns( 45)] =   3.00000
     eigenvalues:
       0.500  0.500  0.500
     eigenvectors (columns):
       1.000  0.000  0.000
       0.000  1.000  0.000
       0.000  0.000  1.000
     occupation matrix ns (before diag.):
       0.500  0.000  0.000
       0.000  0.500  0.000
       0.000  0.000  0.500
     ------------------------ ATOM   46 ------------------------
     Tr[ns( 46)] =   3.00000
     eigenvalues:
       0.500  0.500  0.500
     eigenvectors (columns):
       1.000  0.000  0.000
       0.000  1.000  0.000
       0.000  0.000  1.000
     occupation matrix ns (before diag.):
       0.500  0.000  0.000
       0.000  0.500  0.000
       0.000  0.000  0.500
     ------------------------ ATOM   47 ------------------------
     Tr[ns( 47)] =   3.00000
     eigenvalues:
       0.500  0.500  0.500
     eigenvectors (columns):
       1.000  0.000  0.000
       0.000  1.000  0.000
       0.000  0.000  1.000
     occupation matrix ns (before diag.):
       0.500  0.000  0.000
       0.000  0.500  0.000
       0.000  0.000  0.500
     ------------------------ ATOM   48 ------------------------
     Tr[ns( 48)] =   3.00000
     eigenvalues:
       0.500  0.500  0.500
     eigenvectors (columns):
       1.000  0.000  0.000
       0.000  1.000  0.000
       0.000  0.000  1.000
     occupation matrix ns (before diag.):
       0.500  0.000  0.000
       0.000  0.500  0.000
       0.000  0.000  0.500
     ------------------------ ATOM   49 ------------------------
     Tr[ns( 49)] =   1.00000
     eigenvalues:
       0.167  0.167  0.167
     eigenvectors (columns):
       1.000  0.000  0.000
       0.000  1.000  0.000
       0.000  0.000  1.000
     occupation matrix ns (before diag.):
       0.167  0.000  0.000
       0.000  0.167  0.000
       0.000  0.000  0.167
     ------------------------ ATOM   50 ------------------------
     Tr[ns( 50)] =   1.00000
     eigenvalues:
       0.167  0.167  0.167
     eigenvectors (columns):
       1.000  0.000  0.000
       0.000  1.000  0.000
       0.000  0.000  1.000
     occupation matrix ns (before diag.):
       0.167  0.000  0.000
       0.000  0.167  0.000
       0.000  0.000  0.167
     ------------------------ ATOM   51 ------------------------
     Tr[ns( 51)] =   1.00000
     eigenvalues:
       0.167  0.167  0.167
     eigenvectors (columns):
       1.000  0.000  0.000
       0.000  1.000  0.000
       0.000  0.000  1.000
     occupation matrix ns (before diag.):
       0.167  0.000  0.000
       0.000  0.167  0.000
       0.000  0.000  0.167
     ------------------------ ATOM   52 ------------------------
     Tr[ns( 52)] =   1.00000
     eigenvalues:
       0.167  0.167  0.167
     eigenvectors (columns):
       1.000  0.000  0.000
       0.000  1.000  0.000
       0.000  0.000  1.000
     occupation matrix ns (before diag.):
       0.167  0.000  0.000
       0.000  0.167  0.000
       0.000  0.000  0.167
     ------------------------ ATOM   53 ------------------------
     Tr[ns( 53)] =   3.00000
     eigenvalues:
       0.500  0.500  0.500
     eigenvectors (columns):
       1.000  0.000  0.000
       0.000  1.000  0.000
       0.000  0.000  1.000
     occupation matrix ns (before diag.):
       0.500  0.000  0.000
       0.000  0.500  0.000
       0.000  0.000  0.500
     ------------------------ ATOM   54 ------------------------
     Tr[ns( 54)] =   3.00000
     eigenvalues:
       0.500  0.500  0.500
     eigenvectors (columns):
       1.000  0.000  0.000
       0.000  1.000  0.000
       0.000  0.000  1.000
     occupation matrix ns (before diag.):
       0.500  0.000  0.000
       0.000  0.500  0.000
       0.000  0.000  0.500
     ------------------------ ATOM   55 ------------------------
     Tr[ns( 55)] =   3.00000
     eigenvalues:
       0.500  0.500  0.500
     eigenvectors (columns):
       1.000  0.000  0.000
       0.000  1.000  0.000
       0.000  0.000  1.000
     occupation matrix ns (before diag.):
       0.500  0.000  0.000
       0.000  0.500  0.000
       0.000  0.000  0.500
     ------------------------ ATOM   56 ------------------------
     Tr[ns( 56)] =   3.00000
     eigenvalues:
       0.500  0.500  0.500
     eigenvectors (columns):
       1.000  0.000  0.000
       0.000  1.000  0.000
       0.000  0.000  1.000
     occupation matrix ns (before diag.):
       0.500  0.000  0.000
       0.000  0.500  0.000
       0.000  0.000  0.500
     ------------------------ ATOM   57 ------------------------
     Tr[ns( 57)] =   1.00000
     eigenvalues:
       0.167  0.167  0.167
     eigenvectors (columns):
       1.000  0.000  0.000
       0.000  1.000  0.000
       0.000  0.000  1.000
     occupation matrix ns (before diag.):
       0.167  0.000  0.000
       0.000  0.167  0.000
       0.000  0.000  0.167
     ------------------------ ATOM   58 ------------------------
     Tr[ns( 58)] =   1.00000
     eigenvalues:
       0.167  0.167  0.167
     eigenvectors (columns):
       1.000  0.000  0.000
       0.000  1.000  0.000
       0.000  0.000  1.000
     occupation matrix ns (before diag.):
       0.167  0.000  0.000
       0.000  0.167  0.000
       0.000  0.000  0.167
     ------------------------ ATOM   59 ------------------------
     Tr[ns( 59)] =   1.00000
     eigenvalues:
       0.167  0.167  0.167
     eigenvectors (columns):
       1.000  0.000  0.000
       0.000  1.000  0.000
       0.000  0.000  1.000
     occupation matrix ns (before diag.):
       0.167  0.000  0.000
       0.000  0.167  0.000
       0.000  0.000  0.167
     ------------------------ ATOM   60 ------------------------
     Tr[ns( 60)] =   1.00000
     eigenvalues:
       0.167  0.167  0.167
     eigenvectors (columns):
       1.000  0.000  0.000
       0.000  1.000  0.000
       0.000  0.000  1.000
     occupation matrix ns (before diag.):
       0.167  0.000  0.000
       0.000  0.167  0.000
       0.000  0.000  0.167
     ------------------------ ATOM   61 ------------------------
     Tr[ns( 61)] =   3.00000
     eigenvalues:
       0.500  0.500  0.500
     eigenvectors (columns):
       1.000  0.000  0.000
       0.000  1.000  0.000
       0.000  0.000  1.000
     occupation matrix ns (before diag.):
       0.500  0.000  0.000
       0.000  0.500  0.000
       0.000  0.000  0.500
     ------------------------ ATOM   62 ------------------------
     Tr[ns( 62)] =   3.00000
     eigenvalues:
       0.500  0.500  0.500
     eigenvectors (columns):
       1.000  0.000  0.000
       0.000  1.000  0.000
       0.000  0.000  1.000
     occupation matrix ns (before diag.):
       0.500  0.000  0.000
       0.000  0.500  0.000
       0.000  0.000  0.500
     ------------------------ ATOM   63 ------------------------
     Tr[ns( 63)] =   3.00000
     eigenvalues:
       0.500  0.500  0.500
     eigenvectors (columns):
       1.000  0.000  0.000
       0.000  1.000  0.000
       0.000  0.000  1.000
     occupation matrix ns (before diag.):
       0.500  0.000  0.000
       0.000  0.500  0.000
       0.000  0.000  0.500
     ------------------------ ATOM   64 ------------------------
     Tr[ns( 64)] =   3.00000
     eigenvalues:
       0.500  0.500  0.500
     eigenvectors (columns):
       1.000  0.000  0.000
       0.000  1.000  0.000
       0.000  0.000  1.000
     occupation matrix ns (before diag.):
       0.500  0.000  0.000
       0.000  0.500  0.000
       0.000  0.000  0.500
     ------------------------ ATOM   65 ------------------------
     Tr[ns( 65)] =   1.00000
     eigenvalues:
       0.167  0.167  0.167
     eigenvectors (columns):
       1.000  0.000  0.000
       0.000  1.000  0.000
       0.000  0.000  1.000
     occupation matrix ns (before diag.):
       0.167  0.000  0.000
       0.000  0.167  0.000
       0.000  0.000  0.167
     ------------------------ ATOM   66 ------------------------
     Tr[ns( 66)] =   1.00000
     eigenvalues:
       0.167  0.167  0.167
     eigenvectors (columns):
       1.000  0.000  0.000
       0.000  1.000  0.000
       0.000  0.000  1.000
     occupation matrix ns (before diag.):
       0.167  0.000  0.000
       0.000  0.167  0.000
       0.000  0.000  0.167
     ------------------------ ATOM   67 ------------------------
     Tr[ns( 67)] =   1.00000
     eigenvalues:
       0.167  0.167  0.167
     eigenvectors (columns):
       1.000  0.000  0.000
       0.000  1.000  0.000
       0.000  0.000  1.000
     occupation matrix ns (before diag.):
       0.167  0.000  0.000
       0.000  0.167  0.000
       0.000  0.000  0.167
     ------------------------ ATOM   68 ------------------------
     Tr[ns( 68)] =   1.00000
     eigenvalues:
       0.167  0.167  0.167
     eigenvectors (columns):
       1.000  0.000  0.000
       0.000  1.000  0.000
       0.000  0.000  1.000
     occupation matrix ns (before diag.):
       0.167  0.000  0.000
       0.000  0.167  0.000
       0.000  0.000  0.167
     ------------------------ ATOM   69 ------------------------
     Tr[ns( 69)] =   3.00000
     eigenvalues:
       0.500  0.500  0.500
     eigenvectors (columns):
       1.000  0.000  0.000
       0.000  1.000  0.000
       0.000  0.000  1.000
     occupation matrix ns (before diag.):
       0.500  0.000  0.000
       0.000  0.500  0.000
       0.000  0.000  0.500
     ------------------------ ATOM   70 ------------------------
     Tr[ns( 70)] =   3.00000
     eigenvalues:
       0.500  0.500  0.500
     eigenvectors (columns):
       1.000  0.000  0.000
       0.000  1.000  0.000
       0.000  0.000  1.000
     occupation matrix ns (before diag.):
       0.500  0.000  0.000
       0.000  0.500  0.000
       0.000  0.000  0.500
     ------------------------ ATOM   71 ------------------------
     Tr[ns( 71)] =   3.00000
     eigenvalues:
       0.500  0.500  0.500
     eigenvectors (columns):
       1.000  0.000  0.000
       0.000  1.000  0.000
       0.000  0.000  1.000
     occupation matrix ns (before diag.):
       0.500  0.000  0.000
       0.000  0.500  0.000
       0.000  0.000  0.500
     ------------------------ ATOM   72 ------------------------
     Tr[ns( 72)] =   3.00000
     eigenvalues:
       0.500  0.500  0.500
     eigenvectors (columns):
       1.000  0.000  0.000
       0.000  1.000  0.000
       0.000  0.000  1.000
     occupation matrix ns (before diag.):
       0.500  0.000  0.000
       0.000  0.500  0.000
       0.000  0.000  0.500
     ------------------------ ATOM   73 ------------------------
     Tr[ns( 73)] =   1.00000
     eigenvalues:
       0.167  0.167  0.167
     eigenvectors (columns):
       1.000  0.000  0.000
       0.000  1.000  0.000
       0.000  0.000  1.000
     occupation matrix ns (before diag.):
       0.167  0.000  0.000
       0.000  0.167  0.000
       0.000  0.000  0.167
     ------------------------ ATOM   74 ------------------------
     Tr[ns( 74)] =   1.00000
     eigenvalues:
       0.167  0.167  0.167
     eigenvectors (columns):
       1.000  0.000  0.000
       0.000  1.000  0.000
       0.000  0.000  1.000
     occupation matrix ns (before diag.):
       0.167  0.000  0.000
       0.000  0.167  0.000
       0.000  0.000  0.167
     ------------------------ ATOM   75 ------------------------
     Tr[ns( 75)] =   1.00000
     eigenvalues:
       0.167  0.167  0.167
     eigenvectors (columns):
       1.000  0.000  0.000
       0.000  1.000  0.000
       0.000  0.000  1.000
     occupation matrix ns (before diag.):
       0.167  0.000  0.000
       0.000  0.167  0.000
       0.000  0.000  0.167
     ------------------------ ATOM   76 ------------------------
     Tr[ns( 76)] =   1.00000
     eigenvalues:
       0.167  0.167  0.167
     eigenvectors (columns):
       1.000  0.000  0.000
       0.000  1.000  0.000
       0.000  0.000  1.000
     occupation matrix ns (before diag.):
       0.167  0.000  0.000
       0.000  0.167  0.000
       0.000  0.000  0.167
     ------------------------ ATOM   77 ------------------------
     Tr[ns( 77)] =   3.00000
     eigenvalues:
       0.500  0.500  0.500
     eigenvectors (columns):
       1.000  0.000  0.000
       0.000  1.000  0.000
       0.000  0.000  1.000
     occupation matrix ns (before diag.):
       0.500  0.000  0.000
       0.000  0.500  0.000
       0.000  0.000  0.500
     ------------------------ ATOM   78 ------------------------
     Tr[ns( 78)] =   3.00000
     eigenvalues:
       0.500  0.500  0.500
     eigenvectors (columns):
       1.000  0.000  0.000
       0.000  1.000  0.000
       0.000  0.000  1.000
     occupation matrix ns (before diag.):
       0.500  0.000  0.000
       0.000  0.500  0.000
       0.000  0.000  0.500
     ------------------------ ATOM   79 ------------------------
     Tr[ns( 79)] =   3.00000
     eigenvalues:
       0.500  0.500  0.500
     eigenvectors (columns):
       1.000  0.000  0.000
       0.000  1.000  0.000
       0.000  0.000  1.000
     occupation matrix ns (before diag.):
       0.500  0.000  0.000
       0.000  0.500  0.000
       0.000  0.000  0.500
     ------------------------ ATOM   80 ------------------------
     Tr[ns( 80)] =   3.00000
     eigenvalues:
       0.500  0.500  0.500
     eigenvectors (columns):
       1.000  0.000  0.000
       0.000  1.000  0.000
       0.000  0.000  1.000
     occupation matrix ns (before diag.):
       0.500  0.000  0.000
       0.000  0.500  0.000
       0.000  0.000  0.500
     ------------------------ ATOM   81 ------------------------
     Tr[ns( 81)] =   1.00000
     eigenvalues:
       0.167  0.167  0.167
     eigenvectors (columns):
       1.000  0.000  0.000
       0.000  1.000  0.000
       0.000  0.000  1.000
     occupation matrix ns (before diag.):
       0.167  0.000  0.000
       0.000  0.167  0.000
       0.000  0.000  0.167
     ------------------------ ATOM   82 ------------------------
     Tr[ns( 82)] =   1.00000
     eigenvalues:
       0.167  0.167  0.167
     eigenvectors (columns):
       1.000  0.000  0.000
       0.000  1.000  0.000
       0.000  0.000  1.000
     occupation matrix ns (before diag.):
       0.167  0.000  0.000
       0.000  0.167  0.000
       0.000  0.000  0.167
     ------------------------ ATOM   83 ------------------------
     Tr[ns( 83)] =   1.00000
     eigenvalues:
       0.167  0.167  0.167
     eigenvectors (columns):
       1.000  0.000  0.000
       0.000  1.000  0.000
       0.000  0.000  1.000
     occupation matrix ns (before diag.):
       0.167  0.000  0.000
       0.000  0.167  0.000
       0.000  0.000  0.167
     ------------------------ ATOM   84 ------------------------
     Tr[ns( 84)] =   1.00000
     eigenvalues:
       0.167  0.167  0.167
     eigenvectors (columns):
       1.000  0.000  0.000
       0.000  1.000  0.000
       0.000  0.000  1.000
     occupation matrix ns (before diag.):
       0.167  0.000  0.000
       0.000  0.167  0.000
       0.000  0.000  0.167
     ------------------------ ATOM   85 ------------------------
     Tr[ns( 85)] =   3.00000
     eigenvalues:
       0.500  0.500  0.500
     eigenvectors (columns):
       1.000  0.000  0.000
       0.000  1.000  0.000
       0.000  0.000  1.000
     occupation matrix ns (before diag.):
       0.500  0.000  0.000
       0.000  0.500  0.000
       0.000  0.000  0.500
     ------------------------ ATOM   86 ------------------------
     Tr[ns( 86)] =   3.00000
     eigenvalues:
       0.500  0.500  0.500
     eigenvectors (columns):
       1.000  0.000  0.000
       0.000  1.000  0.000
       0.000  0.000  1.000
     occupation matrix ns (before diag.):
       0.500  0.000  0.000
       0.000  0.500  0.000
       0.000  0.000  0.500
     ------------------------ ATOM   87 ------------------------
     Tr[ns( 87)] =   3.00000
     eigenvalues:
       0.500  0.500  0.500
     eigenvectors (columns):
       1.000  0.000  0.000
       0.000  1.000  0.000
       0.000  0.000  1.000
     occupation matrix ns (before diag.):
       0.500  0.000  0.000
       0.000  0.500  0.000
       0.000  0.000  0.500
     ------------------------ ATOM   88 ------------------------
     Tr[ns( 88)] =   3.00000
     eigenvalues:
       0.500  0.500  0.500
     eigenvectors (columns):
       1.000  0.000  0.000
       0.000  1.000  0.000
       0.000  0.000  1.000
     occupation matrix ns (before diag.):
       0.500  0.000  0.000
       0.000  0.500  0.000
       0.000  0.000  0.500
     ------------------------ ATOM   89 ------------------------
     Tr[ns( 89)] =   1.00000
     eigenvalues:
       0.167  0.167  0.167
     eigenvectors (columns):
       1.000  0.000  0.000
       0.000  1.000  0.000
       0.000  0.000  1.000
     occupation matrix ns (before diag.):
       0.167  0.000  0.000
       0.000  0.167  0.000
       0.000  0.000  0.167
     ------------------------ ATOM   90 ------------------------
     Tr[ns( 90)] =   1.00000
     eigenvalues:
       0.167  0.167  0.167
     eigenvectors (columns):
       1.000  0.000  0.000
       0.000  1.000  0.000
       0.000  0.000  1.000
     occupation matrix ns (before diag.):
       0.167  0.000  0.000
       0.000  0.167  0.000
       0.000  0.000  0.167
     ------------------------ ATOM   91 ------------------------
     Tr[ns( 91)] =   1.00000
     eigenvalues:
       0.167  0.167  0.167
     eigenvectors (columns):
       1.000  0.000  0.000
       0.000  1.000  0.000
       0.000  0.000  1.000
     occupation matrix ns (before diag.):
       0.167  0.000  0.000
       0.000  0.167  0.000
       0.000  0.000  0.167
     ------------------------ ATOM   92 ------------------------
     Tr[ns( 92)] =   1.00000
     eigenvalues:
       0.167  0.167  0.167
     eigenvectors (columns):
       1.000  0.000  0.000
       0.000  1.000  0.000
       0.000  0.000  1.000
     occupation matrix ns (before diag.):
       0.167  0.000  0.000
       0.000  0.167  0.000
       0.000  0.000  0.167
     ------------------------ ATOM   93 ------------------------
     Tr[ns( 93)] =   3.00000
     eigenvalues:
       0.500  0.500  0.500
     eigenvectors (columns):
       1.000  0.000  0.000
       0.000  1.000  0.000
       0.000  0.000  1.000
     occupation matrix ns (before diag.):
       0.500  0.000  0.000
       0.000  0.500  0.000
       0.000  0.000  0.500
     ------------------------ ATOM   94 ------------------------
     Tr[ns( 94)] =   3.00000
     eigenvalues:
       0.500  0.500  0.500
     eigenvectors (columns):
       1.000  0.000  0.000
       0.000  1.000  0.000
       0.000  0.000  1.000
     occupation matrix ns (before diag.):
       0.500  0.000  0.000
       0.000  0.500  0.000
       0.000  0.000  0.500
     ------------------------ ATOM   95 ------------------------
     Tr[ns( 95)] =   3.00000
     eigenvalues:
       0.500  0.500  0.500
     eigenvectors (columns):
       1.000  0.000  0.000
       0.000  1.000  0.000
       0.000  0.000  1.000
     occupation matrix ns (before diag.):
       0.500  0.000  0.000
       0.000  0.500  0.000
       0.000  0.000  0.500
     ------------------------ ATOM   96 ------------------------
     Tr[ns( 96)] =   3.00000
     eigenvalues:
       0.500  0.500  0.500
     eigenvectors (columns):
       1.000  0.000  0.000
       0.000  1.000  0.000
       0.000  0.000  1.000
     occupation matrix ns (before diag.):
       0.500  0.000  0.000
       0.000  0.500  0.000
       0.000  0.000  0.500
     ------------------------ ATOM   97 ------------------------
     Tr[ns( 97)] =   1.00000
     eigenvalues:
       0.167  0.167  0.167
     eigenvectors (columns):
       1.000  0.000  0.000
       0.000  1.000  0.000
       0.000  0.000  1.000
     occupation matrix ns (before diag.):
       0.167  0.000  0.000
       0.000  0.167  0.000
       0.000  0.000  0.167
     ------------------------ ATOM   98 ------------------------
     Tr[ns( 98)] =   1.00000
     eigenvalues:
       0.167  0.167  0.167
     eigenvectors (columns):
       1.000  0.000  0.000
       0.000  1.000  0.000
       0.000  0.000  1.000
     occupation matrix ns (before diag.):
       0.167  0.000  0.000
       0.000  0.167  0.000
       0.000  0.000  0.167
     ------------------------ ATOM   99 ------------------------
     Tr[ns( 99)] =   1.00000
     eigenvalues:
       0.167  0.167  0.167
     eigenvectors (columns):
       1.000  0.000  0.000
       0.000  1.000  0.000
       0.000  0.000  1.000
     occupation matrix ns (before diag.):
       0.167  0.000  0.000
       0.000  0.167  0.000
       0.000  0.000  0.167
     ------------------------ ATOM  100 ------------------------
     Tr[ns(100)] =   1.00000
     eigenvalues:
       0.167  0.167  0.167
     eigenvectors (columns):
       1.000  0.000  0.000
       0.000  1.000  0.000
       0.000  0.000  1.000
     occupation matrix ns (before diag.):
       0.167  0.000  0.000
       0.000  0.167  0.000
       0.000  0.000  0.167
     ------------------------ ATOM  101 ------------------------
     Tr[ns(101)] =   3.00000
     eigenvalues:
       0.500  0.500  0.500
     eigenvectors (columns):
       1.000  0.000  0.000
       0.000  1.000  0.000
       0.000  0.000  1.000
     occupation matrix ns (before diag.):
       0.500  0.000  0.000
       0.000  0.500  0.000
       0.000  0.000  0.500
     ------------------------ ATOM  102 ------------------------
     Tr[ns(102)] =   3.00000
     eigenvalues:
       0.500  0.500  0.500
     eigenvectors (columns):
       1.000  0.000  0.000
       0.000  1.000  0.000
       0.000  0.000  1.000
     occupation matrix ns (before diag.):
       0.500  0.000  0.000
       0.000  0.500  0.000
       0.000  0.000  0.500
     ------------------------ ATOM  103 ------------------------
     Tr[ns(103)] =   3.00000
     eigenvalues:
       0.500  0.500  0.500
     eigenvectors (columns):
       1.000  0.000  0.000
       0.000  1.000  0.000
       0.000  0.000  1.000
     occupation matrix ns (before diag.):
       0.500  0.000  0.000
       0.000  0.500  0.000
       0.000  0.000  0.500
     ------------------------ ATOM  104 ------------------------
     Tr[ns(104)] =   3.00000
     eigenvalues:
       0.500  0.500  0.500
     eigenvectors (columns):
       1.000  0.000  0.000
       0.000  1.000  0.000
       0.000  0.000  1.000
     occupation matrix ns (before diag.):
       0.500  0.000  0.000
       0.000  0.500  0.000
       0.000  0.000  0.500
     ------------------------ ATOM  105 ------------------------
     Tr[ns(105)] =   1.00000
     eigenvalues:
       0.167  0.167  0.167
     eigenvectors (columns):
       1.000  0.000  0.000
       0.000  1.000  0.000
       0.000  0.000  1.000
     occupation matrix ns (before diag.):
       0.167  0.000  0.000
       0.000  0.167  0.000
       0.000  0.000  0.167
     ------------------------ ATOM  106 ------------------------
     Tr[ns(106)] =   1.00000
     eigenvalues:
       0.167  0.167  0.167
     eigenvectors (columns):
       1.000  0.000  0.000
       0.000  1.000  0.000
       0.000  0.000  1.000
     occupation matrix ns (before diag.):
       0.167  0.000  0.000
       0.000  0.167  0.000
       0.000  0.000  0.167
     ------------------------ ATOM  107 ------------------------
     Tr[ns(107)] =   1.00000
     eigenvalues:
       0.167  0.167  0.167
     eigenvectors (columns):
       1.000  0.000  0.000
       0.000  1.000  0.000
       0.000  0.000  1.000
     occupation matrix ns (before diag.):
       0.167  0.000  0.000
       0.000  0.167  0.000
       0.000  0.000  0.167
     ------------------------ ATOM  108 ------------------------
     Tr[ns(108)] =   1.00000
     eigenvalues:
       0.167  0.167  0.167
     eigenvectors (columns):
       1.000  0.000  0.000
       0.000  1.000  0.000
       0.000  0.000  1.000
     occupation matrix ns (before diag.):
       0.167  0.000  0.000
       0.000  0.167  0.000
       0.000  0.000  0.167
     ------------------------ ATOM  109 ------------------------
     Tr[ns(109)] =   3.00000
     eigenvalues:
       0.500  0.500  0.500
     eigenvectors (columns):
       1.000  0.000  0.000
       0.000  1.000  0.000
       0.000  0.000  1.000
     occupation matrix ns (before diag.):
       0.500  0.000  0.000
       0.000  0.500  0.000
       0.000  0.000  0.500
     ------------------------ ATOM  110 ------------------------
     Tr[ns(110)] =   3.00000
     eigenvalues:
       0.500  0.500  0.500
     eigenvectors (columns):
       1.000  0.000  0.000
       0.000  1.000  0.000
       0.000  0.000  1.000
     occupation matrix ns (before diag.):
       0.500  0.000  0.000
       0.000  0.500  0.000
       0.000  0.000  0.500
     ------------------------ ATOM  111 ------------------------
     Tr[ns(111)] =   3.00000
     eigenvalues:
       0.500  0.500  0.500
     eigenvectors (columns):
       1.000  0.000  0.000
       0.000  1.000  0.000
       0.000  0.000  1.000
     occupation matrix ns (before diag.):
       0.500  0.000  0.000
       0.000  0.500  0.000
       0.000  0.000  0.500
     ------------------------ ATOM  112 ------------------------
     Tr[ns(112)] =   3.00000
     eigenvalues:
       0.500  0.500  0.500
     eigenvectors (columns):
       1.000  0.000  0.000
       0.000  1.000  0.000
       0.000  0.000  1.000
     occupation matrix ns (before diag.):
       0.500  0.000  0.000
       0.000  0.500  0.000
       0.000  0.000  0.500
     ------------------------ ATOM  113 ------------------------
     Tr[ns(113)] =   1.00000
     eigenvalues:
       0.167  0.167  0.167
     eigenvectors (columns):
       1.000  0.000  0.000
       0.000  1.000  0.000
       0.000  0.000  1.000
     occupation matrix ns (before diag.):
       0.167  0.000  0.000
       0.000  0.167  0.000
       0.000  0.000  0.167
     ------------------------ ATOM  114 ------------------------
     Tr[ns(114)] =   1.00000
     eigenvalues:
       0.167  0.167  0.167
     eigenvectors (columns):
       1.000  0.000  0.000
       0.000  1.000  0.000
       0.000  0.000  1.000
     occupation matrix ns (before diag.):
       0.167  0.000  0.000
       0.000  0.167  0.000
       0.000  0.000  0.167
     ------------------------ ATOM  115 ------------------------
     Tr[ns(115)] =   1.00000
     eigenvalues:
       0.167  0.167  0.167
     eigenvectors (columns):
       1.000  0.000  0.000
       0.000  1.000  0.000
       0.000  0.000  1.000
     occupation matrix ns (before diag.):
       0.167  0.000  0.000
       0.000  0.167  0.000
       0.000  0.000  0.167
     ------------------------ ATOM  116 ------------------------
     Tr[ns(116)] =   1.00000
     eigenvalues:
       0.167  0.167  0.167
     eigenvectors (columns):
       1.000  0.000  0.000
       0.000  1.000  0.000
       0.000  0.000  1.000
     occupation matrix ns (before diag.):
       0.167  0.000  0.000
       0.000  0.167  0.000
       0.000  0.000  0.167
     ------------------------ ATOM  117 ------------------------
     Tr[ns(117)] =   3.00000
     eigenvalues:
       0.500  0.500  0.500
     eigenvectors (columns):
       1.000  0.000  0.000
       0.000  1.000  0.000
       0.000  0.000  1.000
     occupation matrix ns (before diag.):
       0.500  0.000  0.000
       0.000  0.500  0.000
       0.000  0.000  0.500
     ------------------------ ATOM  118 ------------------------
     Tr[ns(118)] =   3.00000
     eigenvalues:
       0.500  0.500  0.500
     eigenvectors (columns):
       1.000  0.000  0.000
       0.000  1.000  0.000
       0.000  0.000  1.000
     occupation matrix ns (before diag.):
       0.500  0.000  0.000
       0.000  0.500  0.000
       0.000  0.000  0.500
     ------------------------ ATOM  119 ------------------------
     Tr[ns(119)] =   3.00000
     eigenvalues:
       0.500  0.500  0.500
     eigenvectors (columns):
       1.000  0.000  0.000
       0.000  1.000  0.000
       0.000  0.000  1.000
     occupation matrix ns (before diag.):
       0.500  0.000  0.000
       0.000  0.500  0.000
       0.000  0.000  0.500
     ------------------------ ATOM  120 ------------------------
     Tr[ns(120)] =   3.00000
     eigenvalues:
       0.500  0.500  0.500
     eigenvectors (columns):
       1.000  0.000  0.000
       0.000  1.000  0.000
       0.000  0.000  1.000
     occupation matrix ns (before diag.):
       0.500  0.000  0.000
       0.000  0.500  0.000
       0.000  0.000  0.500
     ------------------------ ATOM  121 ------------------------
     Tr[ns(121)] =   1.00000
     eigenvalues:
       0.167  0.167  0.167
     eigenvectors (columns):
       1.000  0.000  0.000
       0.000  1.000  0.000
       0.000  0.000  1.000
     occupation matrix ns (before diag.):
       0.167  0.000  0.000
       0.000  0.167  0.000
       0.000  0.000  0.167
     ------------------------ ATOM  122 ------------------------
     Tr[ns(122)] =   1.00000
     eigenvalues:
       0.167  0.167  0.167
     eigenvectors (columns):
       1.000  0.000  0.000
       0.000  1.000  0.000
       0.000  0.000  1.000
     occupation matrix ns (before diag.):
       0.167  0.000  0.000
       0.000  0.167  0.000
       0.000  0.000  0.167
     ------------------------ ATOM  123 ------------------------
     Tr[ns(123)] =   1.00000
     eigenvalues:
       0.167  0.167  0.167
     eigenvectors (columns):
       1.000  0.000  0.000
       0.000  1.000  0.000
       0.000  0.000  1.000
     occupation matrix ns (before diag.):
       0.167  0.000  0.000
       0.000  0.167  0.000
       0.000  0.000  0.167
     ------------------------ ATOM  124 ------------------------
     Tr[ns(124)] =   1.00000
     eigenvalues:
       0.167  0.167  0.167
     eigenvectors (columns):
       1.000  0.000  0.000
       0.000  1.000  0.000
       0.000  0.000  1.000
     occupation matrix ns (before diag.):
       0.167  0.000  0.000
       0.000  0.167  0.000
       0.000  0.000  0.167
     ------------------------ ATOM  125 ------------------------
     Tr[ns(125)] =   3.00000
     eigenvalues:
       0.500  0.500  0.500
     eigenvectors (columns):
       1.000  0.000  0.000
       0.000  1.000  0.000
       0.000  0.000  1.000
     occupation matrix ns (before diag.):
       0.500  0.000  0.000
       0.000  0.500  0.000
       0.000  0.000  0.500
     ------------------------ ATOM  126 ------------------------
     Tr[ns(126)] =   3.00000
     eigenvalues:
       0.500  0.500  0.500
     eigenvectors (columns):
       1.000  0.000  0.000
       0.000  1.000  0.000
       0.000  0.000  1.000
     occupation matrix ns (before diag.):
       0.500  0.000  0.000
       0.000  0.500  0.000
       0.000  0.000  0.500
     ------------------------ ATOM  127 ------------------------
     Tr[ns(127)] =   3.00000
     eigenvalues:
       0.500  0.500  0.500
     eigenvectors (columns):
       1.000  0.000  0.000
       0.000  1.000  0.000
       0.000  0.000  1.000
     occupation matrix ns (before diag.):
       0.500  0.000  0.000
       0.000  0.500  0.000
       0.000  0.000  0.500
     ------------------------ ATOM  128 ------------------------
     Tr[ns(128)] =   3.00000
     eigenvalues:
       0.500  0.500  0.500
     eigenvectors (columns):
       1.000  0.000  0.000
       0.000  1.000  0.000
       0.000  0.000  1.000
     occupation matrix ns (before diag.):
       0.500  0.000  0.000
       0.000  0.500  0.000
       0.000  0.000  0.500
     ------------------------ ATOM  129 ------------------------
     Tr[ns(129)] =   1.00000
     eigenvalues:
       0.167  0.167  0.167
     eigenvectors (columns):
       1.000  0.000  0.000
       0.000  1.000  0.000
       0.000  0.000  1.000
     occupation matrix ns (before diag.):
       0.167  0.000  0.000
       0.000  0.167  0.000
       0.000  0.000  0.167
     ------------------------ ATOM  130 ------------------------
     Tr[ns(130)] =   1.00000
     eigenvalues:
       0.167  0.167  0.167
     eigenvectors (columns):
       1.000  0.000  0.000
       0.000  1.000  0.000
       0.000  0.000  1.000
     occupation matrix ns (before diag.):
       0.167  0.000  0.000
       0.000  0.167  0.000
       0.000  0.000  0.167
     ------------------------ ATOM  131 ------------------------
     Tr[ns(131)] =   1.00000
     eigenvalues:
       0.167  0.167  0.167
     eigenvectors (columns):
       1.000  0.000  0.000
       0.000  1.000  0.000
       0.000  0.000  1.000
     occupation matrix ns (before diag.):
       0.167  0.000  0.000
       0.000  0.167  0.000
       0.000  0.000  0.167
     ------------------------ ATOM  132 ------------------------
     Tr[ns(132)] =   1.00000
     eigenvalues:
       0.167  0.167  0.167
     eigenvectors (columns):
       1.000  0.000  0.000
       0.000  1.000  0.000
       0.000  0.000  1.000
     occupation matrix ns (before diag.):
       0.167  0.000  0.000
       0.000  0.167  0.000
       0.000  0.000  0.167
     ------------------------ ATOM  133 ------------------------
     Tr[ns(133)] =   3.00000
     eigenvalues:
       0.500  0.500  0.500
     eigenvectors (columns):
       1.000  0.000  0.000
       0.000  1.000  0.000
       0.000  0.000  1.000
     occupation matrix ns (before diag.):
       0.500  0.000  0.000
       0.000  0.500  0.000
       0.000  0.000  0.500
     ------------------------ ATOM  134 ------------------------
     Tr[ns(134)] =   3.00000
     eigenvalues:
       0.500  0.500  0.500
     eigenvectors (columns):
       1.000  0.000  0.000
       0.000  1.000  0.000
       0.000  0.000  1.000
     occupation matrix ns (before diag.):
       0.500  0.000  0.000
       0.000  0.500  0.000
       0.000  0.000  0.500
     ------------------------ ATOM  135 ------------------------
     Tr[ns(135)] =   3.00000
     eigenvalues:
       0.500  0.500  0.500
     eigenvectors (columns):
       1.000  0.000  0.000
       0.000  1.000  0.000
       0.000  0.000  1.000
     occupation matrix ns (before diag.):
       0.500  0.000  0.000
       0.000  0.500  0.000
       0.000  0.000  0.500
     ------------------------ ATOM  136 ------------------------
     Tr[ns(136)] =   3.00000
     eigenvalues:
       0.500  0.500  0.500
     eigenvectors (columns):
       1.000  0.000  0.000
       0.000  1.000  0.000
       0.000  0.000  1.000
     occupation matrix ns (before diag.):
       0.500  0.000  0.000
       0.000  0.500  0.000
       0.000  0.000  0.500
     ------------------------ ATOM  137 ------------------------
     Tr[ns(137)] =   1.00000
     eigenvalues:
       0.167  0.167  0.167
     eigenvectors (columns):
       1.000  0.000  0.000
       0.000  1.000  0.000
       0.000  0.000  1.000
     occupation matrix ns (before diag.):
       0.167  0.000  0.000
       0.000  0.167  0.000
       0.000  0.000  0.167
     ------------------------ ATOM  138 ------------------------
     Tr[ns(138)] =   1.00000
     eigenvalues:
       0.167  0.167  0.167
     eigenvectors (columns):
       1.000  0.000  0.000
       0.000  1.000  0.000
       0.000  0.000  1.000
     occupation matrix ns (before diag.):
       0.167  0.000  0.000
       0.000  0.167  0.000
       0.000  0.000  0.167
     ------------------------ ATOM  139 ------------------------
     Tr[ns(139)] =   1.00000
     eigenvalues:
       0.167  0.167  0.167
     eigenvectors (columns):
       1.000  0.000  0.000
       0.000  1.000  0.000
       0.000  0.000  1.000
     occupation matrix ns (before diag.):
       0.167  0.000  0.000
       0.000  0.167  0.000
       0.000  0.000  0.167
     ------------------------ ATOM  140 ------------------------
     Tr[ns(140)] =   1.00000
     eigenvalues:
       0.167  0.167  0.167
     eigenvectors (columns):
       1.000  0.000  0.000
       0.000  1.000  0.000
       0.000  0.000  1.000
     occupation matrix ns (before diag.):
       0.167  0.000  0.000
       0.000  0.167  0.000
       0.000  0.000  0.167
     ------------------------ ATOM  141 ------------------------
     Tr[ns(141)] =   3.00000
     eigenvalues:
       0.500  0.500  0.500
     eigenvectors (columns):
       1.000  0.000  0.000
       0.000  1.000  0.000
       0.000  0.000  1.000
     occupation matrix ns (before diag.):
       0.500  0.000  0.000
       0.000  0.500  0.000
       0.000  0.000  0.500
     ------------------------ ATOM  142 ------------------------
     Tr[ns(142)] =   3.00000
     eigenvalues:
       0.500  0.500  0.500
     eigenvectors (columns):
       1.000  0.000  0.000
       0.000  1.000  0.000
       0.000  0.000  1.000
     occupation matrix ns (before diag.):
       0.500  0.000  0.000
       0.000  0.500  0.000
       0.000  0.000  0.500
     ------------------------ ATOM  143 ------------------------
     Tr[ns(143)] =   3.00000
     eigenvalues:
       0.500  0.500  0.500
     eigenvectors (columns):
       1.000  0.000  0.000
       0.000  1.000  0.000
       0.000  0.000  1.000
     occupation matrix ns (before diag.):
       0.500  0.000  0.000
       0.000  0.500  0.000
       0.000  0.000  0.500
     ------------------------ ATOM  144 ------------------------
     Tr[ns(144)] =   3.00000
     eigenvalues:
       0.500  0.500  0.500
     eigenvectors (columns):
       1.000  0.000  0.000
       0.000  1.000  0.000
       0.000  0.000  1.000
     occupation matrix ns (before diag.):
       0.500  0.000  0.000
       0.000  0.500  0.000
       0.000  0.000  0.500
     ------------------------ ATOM  145 ------------------------
     Tr[ns(145)] =   1.00000
     eigenvalues:
       0.167  0.167  0.167
     eigenvectors (columns):
       1.000  0.000  0.000
       0.000  1.000  0.000
       0.000  0.000  1.000
     occupation matrix ns (before diag.):
       0.167  0.000  0.000
       0.000  0.167  0.000
       0.000  0.000  0.167
     ------------------------ ATOM  146 ------------------------
     Tr[ns(146)] =   1.00000
     eigenvalues:
       0.167  0.167  0.167
     eigenvectors (columns):
       1.000  0.000  0.000
       0.000  1.000  0.000
       0.000  0.000  1.000
     occupation matrix ns (before diag.):
       0.167  0.000  0.000
       0.000  0.167  0.000
       0.000  0.000  0.167
     ------------------------ ATOM  147 ------------------------
     Tr[ns(147)] =   1.00000
     eigenvalues:
       0.167  0.167  0.167
     eigenvectors (columns):
       1.000  0.000  0.000
       0.000  1.000  0.000
       0.000  0.000  1.000
     occupation matrix ns (before diag.):
       0.167  0.000  0.000
       0.000  0.167  0.000
       0.000  0.000  0.167
     ------------------------ ATOM  148 ------------------------
     Tr[ns(148)] =   1.00000
     eigenvalues:
       0.167  0.167  0.167
     eigenvectors (columns):
       1.000  0.000  0.000
       0.000  1.000  0.000
       0.000  0.000  1.000
     occupation matrix ns (before diag.):
       0.167  0.000  0.000
       0.000  0.167  0.000
       0.000  0.000  0.167
     ------------------------ ATOM  149 ------------------------
     Tr[ns(149)] =   3.00000
     eigenvalues:
       0.500  0.500  0.500
     eigenvectors (columns):
       1.000  0.000  0.000
       0.000  1.000  0.000
       0.000  0.000  1.000
     occupation matrix ns (before diag.):
       0.500  0.000  0.000
       0.000  0.500  0.000
       0.000  0.000  0.500
     ------------------------ ATOM  150 ------------------------
     Tr[ns(150)] =   3.00000
     eigenvalues:
       0.500  0.500  0.500
     eigenvectors (columns):
       1.000  0.000  0.000
       0.000  1.000  0.000
       0.000  0.000  1.000
     occupation matrix ns (before diag.):
       0.500  0.000  0.000
       0.000  0.500  0.000
       0.000  0.000  0.500
     ------------------------ ATOM  151 ------------------------
     Tr[ns(151)] =   3.00000
     eigenvalues:
       0.500  0.500  0.500
     eigenvectors (columns):
       1.000  0.000  0.000
       0.000  1.000  0.000
       0.000  0.000  1.000
     occupation matrix ns (before diag.):
       0.500  0.000  0.000
       0.000  0.500  0.000
       0.000  0.000  0.500
     ------------------------ ATOM  152 ------------------------
[...]
   -26.8837 -26.8836 -26.8832 -26.8829 -26.8829 -26.8827 -26.8826 -26.8825
   -26.8824 -26.8822 -26.8817 -26.8817 -26.8817 -26.8815 -26.8811 -26.8809
   -26.8806 -26.8806 -26.8805 -26.8805 -26.8801 -26.8800 -26.8799 -26.8795
   -26.8794 -26.8793 -26.8792 -26.8790 -26.8790 -26.8789 -26.8788 -26.8787
   -26.8781 -26.8779 -26.8775 -26.8775 -26.8771 -26.8770 -26.8763 -26.8763
   -26.8762 -26.8760 -26.8758 -26.8753 -26.8752 -26.8752 -26.8751 -26.8747
   -26.8744 -26.8743 -26.8734 -26.8732 -26.8730 -26.8720 -26.8720 -26.8716
   -26.8712 -26.8709 -26.8706 -26.8704 -26.8700 -26.8694 -26.8693 -26.8688
   -26.8680 -26.8676 -26.8673 -26.8653 -26.8628 -20.2369 -20.2341 -20.2330
   -20.2329 -20.2327 -20.2310 -20.2308 -20.2294 -20.2290 -20.2287 -20.2272
   -20.2262 -20.2257 -20.2245 -20.2235 -20.2231 -20.2221 -20.2207 -20.2194
   -20.2192 -20.2188 -20.2181 -20.2179 -20.2171 -20.2170 -20.2169 -20.2167
   -20.2158 -20.2157 -20.2151 -20.2145 -20.2143 -20.2141 -20.2115 -20.2114
   -20.2110 -20.2109 -20.2108 -20.2104 -20.2104 -20.2104 -20.2102 -20.2097
   -20.2095 -20.2085 -20.2082 -20.2071 -20.2063 -20.2063 -20.2062 -20.2057
   -20.2056 -20.2056 -20.2053 -20.2048 -20.2048 -20.2046 -20.2044 -20.2039
   -20.2035 -20.2031 -20.2018 -20.2016 -20.2000 -20.2000 -20.1992 -20.1988
   -20.1983 -20.1979 -20.1978 -20.1977 -20.1974 -20.1973 -20.1973 -20.1972
   -20.1970 -20.1965 -20.1963 -20.1954 -20.1952 -20.1946 -20.1933 -20.1931
   -20.1927 -20.1924 -20.1919 -20.1918 -20.1913 -20.1912 -20.1910 -20.1908
   -20.1906 -20.1903 -20.1890 -20.1886 -20.1885 -20.1884 -20.1874 -20.1871
   -20.1855 -20.1851 -20.1848 -20.1846 -20.1831 -20.1814 -20.1814 -20.1809
   -20.1801 -20.1793 -20.1790 -20.1784 -20.1778 -20.1775 -20.1774 -20.1772
   -20.1769 -20.1764 -20.1758 -20.1758 -20.1746 -20.1724 -20.1722 -20.1711
   -20.1705 -20.1689 -20.1655 -20.1646 -20.1632 -20.1626 -20.1619 -20.1577
   -20.1557 -20.1538 -20.1533 -20.1402  -7.1936  -7.1919  -7.1865  -7.1804
    -7.1794  -7.1786  -7.1775  -7.1760  -7.1757  -7.1742  -7.1728  -7.1723
    -7.1718  -7.1707  -7.1705  -7.1681  -7.1676  -7.1668  -7.1647  -7.1637
    -7.1629  -7.1626  -7.1606  -7.1598  -7.1583  -7.1582  -7.1574  -7.1570
    -7.1553  -7.1547  -7.1544  -7.1542  -7.1534  -7.1527  -7.1525  -7.1508
    -7.1505  -7.1500  -7.1495  -7.1490  -7.1489  -7.1475  -7.1467  -7.1458
    -7.1455  -7.1439  -7.1430  -7.1427  -7.1421  -7.1413  -7.1405  -7.1400
    -7.1394  -7.1382  -7.1378  -7.1367  -7.1360  -7.1359  -7.1350  -7.1341
    -7.1332  -7.1326  -7.1323  -7.1303  -7.1300  -7.1285  -7.1272  -7.1259
    -7.1253  -7.1250  -7.1237  -7.1227  -7.1217  -7.1181  -7.1171  -7.1159
    -7.1148  -7.1120  -7.1116  -7.1096  -7.1071  -7.1048  -7.1035  -7.1028
    -7.1013  -7.1001  -7.0988  -7.0976  -7.0965  -7.0962  -7.0957  -7.0948
    -7.0943  -7.0927  -7.0924  -7.0915  -7.0907  -7.0896  -7.0886  -7.0879
    -7.0872  -7.0868  -7.0861  -7.0851  -7.0850  -7.0838  -7.0832  -7.0830
    -7.0828  -7.0817  -7.0811  -7.0807  -7.0802  -7.0800  -7.0791  -7.0783
    -7.0779  -7.0768  -7.0767  -7.0760  -7.0759  -7.0750  -7.0739  -7.0733
    -7.0726  -7.0722  -7.0720  -7.0711  -7.0707  -7.0702  -7.0696  -7.0694
    -7.0689  -7.0684  -7.0681  -7.0673  -7.0670  -7.0667  -7.0659  -7.0653
    -7.0644  -7.0643  -7.0642  -7.0636  -7.0631  -7.0623  -7.0620  -7.0618
    -7.0610  -7.0606  -7.0596  -7.0594  -7.0590  -7.0583  -7.0581  -7.0579
    -7.0577  -7.0575  -7.0565  -7.0561  -7.0560  -7.0558  -7.0548  -7.0547
    -7.0544  -7.0538  -7.0531  -7.0529  -7.0524  -7.0523  -7.0519  -7.0517
    -7.0513  -7.0508  -7.0505  -7.0502  -7.0494  -7.0491  -7.0489  -7.0481
    -7.0478  -7.0475  -7.0471  -7.0467  -7.0461  -7.0458  -7.0455  -7.0450
    -7.0445  -7.0444  -7.0439  -7.0438  -7.0432  -7.0430  -7.0425  -7.0419
    -7.0416  -7.0411  -7.0406  -7.0404  -7.0401  -7.0395  -7.0393  -7.0389
    -7.0384  -7.0383  -7.0379  -7.0377  -7.0375  -7.0370  -7.0361  -7.0359
    -7.0354  -7.0349  -7.0343  -7.0341  -7.0338  -7.0335  -7.0332  -7.0325
    -7.0322  -7.0320  -7.0317  -7.0314  -7.0311  -7.0308  -7.0302  -7.0300
    -7.0298  -7.0295  -7.0288  -7.0282  -7.0279  -7.0278  -7.0276  -7.0271
    -7.0269  -7.0264  -7.0261  -7.0256  -7.0255  -7.0250  -7.0248  -7.0245
    -7.0239  -7.0238  -7.0231  -7.0227  -7.0221  -7.0220  -7.0215  -7.0211
    -7.0210  -7.0207  -7.0196  -7.0195  -7.0190  -7.0187  -7.0184  -7.0179
    -7.0177  -7.0174  -7.0171  -7.0170  -7.0166  -7.0160  -7.0159  -7.0157
    -7.0152  -7.0148  -7.0143  -7.0136  -7.0132  -7.0131  -7.0126  -7.0124
    -7.0118  -7.0116  -7.0113  -7.0107  -7.0103  -7.0100  -7.0094  -7.0086
    -7.0083  -7.0078  -7.0073  -7.0067  -7.0061  -7.0057  -7.0056  -7.0052
    -7.0052  -7.0043  -7.0038  -7.0034  -7.0031  -7.0024  -7.0019  -7.0012
    -7.0009  -7.0005  -6.9999  -6.9996  -6.9991  -6.9986  -6.9982  -6.9976
    -6.9972  -6.9970  -6.9969  -6.9962  -6.9958  -6.9957  -6.9955  -6.9948
    -6.9943  -6.9940  -6.9929  -6.9927  -6.9924  -6.9923  -6.9916  -6.9915
    -6.9909  -6.9905  -6.9900  -6.9894  -6.9890  -6.9888  -6.9886  -6.9879
    -6.9873  -6.9867  -6.9865  -6.9859  -6.9854  -6.9851  -6.9848  -6.9844
    -6.9838  -6.9834  -6.9834  -6.9826  -6.9821  -6.9818  -6.9811  -6.9805
    -6.9803  -6.9800  -6.9792  -6.9790  -6.9785  -6.9783  -6.9781  -6.9776
    -6.9772  -6.9769  -6.9767  -6.9762  -6.9761  -6.9753  -6.9751  -6.9746
    -6.9742  -6.9737  -6.9734  -6.9730  -6.9727  -6.9724  -6.9714  -6.9712
    -6.9709  -6.9709  -6.9706  -6.9703  -6.9699  -6.9697  -6.9692  -6.9685
    -6.9684  -6.9682  -6.9679  -6.9678  -6.9670  -6.9669  -6.9666  -6.9661
    -6.9660  -6.9653  -6.9651  -6.9648  -6.9645  -6.9642  -6.9638  -6.9635
    -6.9631  -6.9628  -6.9626  -6.9623  -6.9614  -6.9612  -6.9608  -6.9604
    -6.9601  -6.9597  -6.9594  -6.9593  -6.9589  -6.9586  -6.9582  -6.9579
    -6.9576  -6.9574  -6.9569  -6.9564  -6.9559  -6.9557  -6.9557  -6.9555
    -6.9551  -6.9548  -6.9543  -6.9539  -6.9534  -6.9526  -6.9526  -6.9522
    -6.9521  -6.9519  -6.9516  -6.9510  -6.9505  -6.9501  -6.9497  -6.9493
    -6.9488  -6.9484  -6.9484  -6.9477  -6.9477  -6.9476  -6.9469  -6.9467
    -6.9463  -6.9457  -6.9457  -6.9450  -6.9447  -6.9442  -6.9439  -6.9438
    -6.9436  -6.9433  -6.9429  -6.9427  -6.9426  -6.9421  -6.9418  -6.9406
    -6.9400  -6.9400  -6.9395  -6.9393  -6.9387  -6.9384  -6.9380  -6.9376
    -6.9375  -6.9371  -6.9360  -6.9355  -6.9352  -6.9351  -6.9342  -6.9332
    -6.9328  -6.9326  -6.9320  -6.9316  -6.9315  -6.9310  -6.9305  -6.9300
    -6.9295  -6.9285  -6.9273  -6.9271  -6.9268  -6.9263  -6.9251  -6.9241
    -6.9236  -6.9231  -6.9224  -6.9218  -6.9205  -6.9202  -6.9195  -6.9190
    -6.9185  -6.9175  -6.9169  -6.9166  -6.9151  -6.9144  -6.9141  -6.9137
    -6.9129  -6.9124  -6.9124  -6.9117  -6.9114  -6.9111  -6.9102  -6.9098
    -6.9091  -6.9087  -6.9080  -6.9039  -6.9030  -6.9017  -6.9011  -6.9008
    -6.8997  -6.8990  -6.8930  -6.8928  -6.8917  -6.8903  -6.8894  -6.8890
    -6.8862  -6.8834  -6.8800  -6.8768  -6.8755  -6.8739  -6.8610  -6.8556
    -3.6159  -3.5754  -3.5456  -3.5197  -3.3676  -3.3426  -3.3349  -3.2887
    -3.2779  -3.2443  -3.2240  -3.1464  -3.0864  -3.0683  -3.0563  -3.0323
    -3.0181  -3.0034  -2.9504  -2.8963  -2.8436  -2.8271  -2.8258  -2.8143
    -2.8081  -2.7917  -2.7732  -2.7697  -2.7514  -2.7105  -2.7024  -2.6701
    -2.6585  -2.6452  -2.6098  -2.5881  -2.5484  -2.5359  -2.5198  -2.4983
    -2.4842  -2.4802  -2.4580  -2.4401  -2.4097  -2.3926  -2.3763  -2.3713
    -2.3504  -2.3321  -2.3157  -2.3066  -2.2822  -2.2613  -2.2480  -2.2183
    -2.2087  -2.1918  -2.1854  -2.1792  -2.1724  -2.1460  -2.1352  -2.1212
    -2.1024  -2.0983  -2.0714  -2.0627  -2.0552  -2.0493  -2.0446  -2.0436
    -2.0359  -2.0244  -2.0183  -2.0085  -1.9830  -1.9791  -1.9630  -1.9255
    -1.9070  -1.6347  -1.5846  -1.5059  -1.4900  -1.4514  -1.4187  -1.4021
    -1.3647  -1.3052  -1.2983  -1.2530  -1.2361  -1.2042  -1.1929  -1.1496
    -1.0891  -1.0540  -1.0368  -1.0163  -0.9462  -0.9393  -0.9026  -0.8943
    -0.8540  -0.8478  -0.8170  -0.7929   0.6327   0.6527   0.6596   0.6801
     0.8112   0.8184   0.8214   0.8284   0.8448   0.8560   0.8659   0.8707
     0.9092   0.9214   0.9267   0.9322   0.9377   0.9410   0.9438   0.9471
     0.9526   0.9627   0.9652   0.9689   0.9721   0.9751   0.9779   0.9873
     0.9885   0.9951   0.9991   1.0035   1.0099   1.0121   1.0188   1.0241
     1.0288   1.0372   1.0441   1.0482   1.0525   1.0553   1.0586   1.0680
     1.0713   1.0748   1.0767   1.0897   1.0942   1.1023   1.1104   1.1161
     1.1235   1.1295   1.1468   1.1478   1.1642   1.1888   1.2026   1.2175
     1.6881   1.7019   1.7200   1.7551   1.7576   1.7698   1.7883   1.8006
     1.8074   1.8242   1.8759   1.9000   1.9378   1.9449   1.9546   1.9722
     1.9951   1.9979   2.0078   2.0269   2.0457   2.0490   2.0597   2.0921
     2.1235   2.1450   2.1470   2.1893   2.9222   2.9255   2.9561   2.9893
     3.0070   3.0375   3.0648   3.1292   3.4843   3.4961   3.5032   3.5154
     3.5292   3.5407   3.5427   3.5504   3.5546   3.5786   3.5910   3.5946
     3.6037   3.6232   3.6479   3.6655   3.7320   3.7433   3.7492   3.7527
     3.7584   3.7622   3.7733   3.7782   3.7830   3.7973   3.8045   3.8149
     3.8201   3.8315   3.8360   3.8733   3.8865   3.8875   3.8991   3.9246
     3.9837   3.9918   4.0035   4.0118   4.0242   4.0313   4.0343   4.0418
     4.0498   4.0581   4.0640   4.0666   4.0719   4.0799   4.0917   4.1043
     4.1094   4.1266   4.1488   4.1526   4.4133   4.4218   4.4297   4.4408
     4.4525   4.4758   4.4822   4.4898   4.5607   4.5674   4.5752   4.5832
     4.5858   4.5933   4.5984   4.6029   4.6102   4.6152   4.6277   4.6361
     4.6392   4.6430   4.6519   4.6576   4.6628   4.6796   4.6906   4.6989
     4.7102   4.7180   4.7205   4.7430   4.7672   4.7886   4.7988   4.8179
     4.8722   4.8769   4.8869   4.8952   4.8995   4.9074   4.9086   4.9251
     4.9305   4.9405   4.9472   4.9584   4.9666   4.9766   4.9920   5.0032
     5.0114   5.0209   5.0309   5.0469   5.0512   5.0629   5.0722   5.0793
     5.0850   5.0888   5.1004   5.1055   5.1132   5.1214   5.1349   5.1527
     5.1716   5.1906   5.1913   5.2082   5.2137   5.2221   5.2362   5.2492
     5.2560   5.2607   5.2693   5.2785   5.2864   5.3042   5.3179   5.3320
     5.3368   5.3413   5.3590   5.3915   5.4192   5.4213   5.4480   5.4597
     5.4680   5.4735   5.4840   5.4861   5.4949   5.5100   5.5130   5.5186
     5.5333   5.5358   5.5583   5.5616   5.5707   5.5767   5.6009   5.6075
     5.6162   5.6242   5.6422   5.6508   5.7236   5.7636   5.7846   5.7914
     5.8081   5.8395   5.8581   5.8774   5.8945   5.9067   5.9293   5.9413
     5.9483   5.9531   5.9624   5.9757   5.9786   5.9950   5.9988   6.0057
     6.0090   6.0283   6.0396   6.0628   6.0752   6.0960   6.1008   6.1152
     6.1369   6.1589   6.1636   6.1789   6.1873   6.2107   6.2242   6.2493
     6.2586   6.2668   6.2998   6.3097   6.3189   6.3339   6.3591   6.3597
     6.3796   6.4009   6.4165   6.4353   6.4612   6.4646   6.4931   6.5200
     6.5591   6.5950   6.6418   6.6740   6.9627   7.0112   7.0361   7.1500
     8.6687   8.7035   8.7201   8.7281   8.8413   8.8597   8.8802   8.8896
     8.9240   8.9446   8.9729   9.0071   9.1500   9.1686   9.1810   9.1924
     9.2140   9.2319   9.2804   9.3322   9.4260   9.4427   9.4603   9.4828
     9.4860   9.5130   9.5204   9.5432   9.5522   9.5653   9.5784   9.5862
     9.5912   9.6073   9.6158   9.6291   9.6419   9.6507   9.6565   9.6742
     9.6767   9.6903   9.7010   9.7067   9.7162   9.7216   9.7306   9.7358
     9.7473   9.7602   9.7660   9.7911   9.8009   9.8030   9.8371   9.8501
     9.8879   9.9096   9.9206   9.9255   9.9285   9.9364   9.9422   9.9448
     9.9581   9.9599   9.9718   9.9781   9.9805   9.9864   9.9956  10.0001
    10.0054  10.0139  10.0245  10.0287  10.0342  10.0438  10.0475  10.0537
    10.0558  10.0604  10.0671  10.0722  10.0783  10.0864  10.0917  10.1016
    10.1103  10.1132  10.1206  10.1305  10.1424  10.1493  10.1607  10.1638
    10.1771  10.1852  10.1951  10.2001  10.2126  10.2220  10.2279  10.2349
    10.2534  10.2727  10.2919  10.3068  10.4793  10.5101  10.5508  10.5577
    10.5764  10.6022  10.6195  10.6297  10.6382  10.6409  10.6811  10.7209
    10.8207  10.8247  10.8471  10.8677  10.8771  10.8812  10.9019  10.9151
    10.9273  10.9514  10.9620  10.9827  11.0121  11.0443  11.0774  11.1033
    11.2425  11.2600  11.2665  11.2749  11.2972  11.3086  11.3264  11.3494
    11.3681  11.3785  11.3891  11.4219  11.5181  11.5202  11.5245  11.5323
    11.5495  11.5682  11.5772  11.5842  11.5888  11.5951  11.5983  11.6053
    11.6174  11.6185  11.6324  11.6346  11.6411  11.6485  11.6525  11.6649
    11.6708  11.6742  11.6888  11.6894  11.7013  11.7042  11.7084  11.7171
    11.7253  11.7329  11.7421  11.7490  11.7569  11.7692  11.7734  11.7883
    11.7946  11.7997  11.8088  11.8126  11.8166  11.8300  11.8355  11.8420
    11.8531  11.8591  11.8752  11.8933  11.9188  11.9250  11.9334  11.9440
    11.9578  11.9637  11.9724  11.9816  11.9977  12.0238  12.0264  12.0499
    12.0720  12.0821  12.0918  12.1197  12.1354  12.1572  12.1687  12.1846
    12.1978  12.2192  12.2200  12.2521  12.2550  12.2751  12.2801  12.2842
    12.2916  12.3023  12.3109  12.3173  12.3704  12.3953  12.4167  12.4212
    12.4258  12.4298  12.4443  12.4480  12.4512  12.4686  12.4779  12.4891
    12.4902  12.5015  12.5033  12.5256  12.5322  12.5409  12.5500  12.5551
    12.5795  12.5993  12.6088  12.6207  12.6282  12.6392  12.6478  12.6525
    12.6833  12.6947  12.7040  12.7136  12.7206  12.7257  12.7330  12.7429
    12.7500  12.7635  12.7791  12.7824  12.7906  12.7998  12.8094  12.8204
    12.8630  12.8763  12.8814  12.8869  12.8945  12.9024  12.9123  12.9205
    12.9331  12.9445  12.9530  12.9657  12.9854  12.9983  13.0271  13.0434
    13.0818  13.0885  13.0904  13.1059  13.1102  13.1184  13.1249  13.1295
    13.1345  13.1437  13.1532  13.1613  13.1615  13.1702  13.1740  13.1845
    13.1887  13.1914  13.1969  13.2080  13.2186  13.2250  13.2274  13.2413
    13.2456  13.2528  13.2643  13.2648  13.2678  13.2725  13.2777  13.2881
    13.2913  13.3040  13.3140  13.3220  13.3269  13.3394  13.3423  13.3520
    13.3613  13.3630  13.3716  13.3878  13.3908  13.4001  13.4082  13.4145
    13.4285  13.4408  13.4499  13.4603  13.4640  13.4912  13.5007  13.5200
    13.5553  13.5706  13.5931  13.6174  13.6297  13.6543  13.6689  13.7218
    14.0685  14.0894  14.1044  14.1155  14.1200  14.1228  14.1276  14.1365
    14.1494  14.1621  14.1723  14.1823  14.1949  14.2056  14.2200  14.2279
    14.2342  14.2433  14.2594  14.2641  14.2709  14.2885  14.2995  14.3020
    14.3116  14.3314  14.3384  14.3522  14.3642  14.3766  14.4036  14.4143
    14.4479  14.4785  14.4843  14.5204  14.5421  14.5676  14.5708  14.5886
    14.5962  14.6059  14.6198  14.6341  14.6453  14.6667  14.6721  14.6770
    14.6993  14.7292  14.7450  14.7552  14.7654  14.7802  14.7898  14.7967
    14.8022  14.8388  14.8513  14.8786  14.8932  14.9143  14.9302  14.9460
    14.9612  14.9708  14.9977  15.0106  15.0204  15.0681  15.0838  15.1052
    15.1144  15.1222  15.1362  15.1430  15.1538  15.1667  15.1839  15.1918
    15.2824  15.2916  15.2987  15.3078  15.4427  15.4741  15.4916  15.4989
    15.4991  15.5187  15.5248  15.5358  15.5384  15.5466  15.5580  15.5765
    15.5935  15.5991  15.6068  15.6198  15.6318  15.6361  15.6414  15.6476
    15.6560  15.6627  15.6702  15.6815  15.6869  15.6880  15.6930  15.6959
    15.7071  15.7141  15.7218  15.7348  15.7404  15.7453  15.7510  15.7552
    15.7603  15.7639  15.7749  15.7868  15.7928  15.8004  15.8047  15.8170
    15.8230  15.8300  15.8369  15.8443  15.8449  15.8500  15.8566  15.8766
    15.8820  15.8867  15.8928  15.9090  15.9158  15.9238  15.9317  15.9497
    15.9625  15.9747  15.9880  15.9976  16.0061  16.0309  16.0355  16.0443
    16.0554  16.0602  16.0782  16.0918  16.1121  16.1304  16.1391  16.1452
    16.1548  16.1625  16.1692  16.1845  16.1967  16.1982  16.2006  16.2161
    16.2279  16.2338  16.2483  16.2553  16.2692  16.2750  16.2876  16.2919
    16.3009  16.3159  16.3173  16.3242  16.3332  16.3383  16.3595  16.3674
    16.3801  16.3987  16.4166  16.4276  16.4486  16.4609  16.4833  16.4979
    16.5113  16.5496  16.5539  16.5721  16.5812  16.5872  16.5909  16.6023
    16.6053  16.6178  16.6289  16.6301  16.6419  16.6503  16.6558  16.6670
    16.6683  16.6849  16.6951  16.6985  16.7026  16.7222  16.7325  16.7404
    16.7456  16.7529  16.7636  16.7811  16.7863  16.7940  16.8044  16.8116
    16.8290  16.8298  16.8451  16.8524  17.0058  17.0188  17.0568  17.0688
    17.0767  17.0827  17.0927  17.0957  17.1174  17.1325  17.1357  17.1420
    17.1510  17.1560  17.1600  17.1626  17.1740  17.1811  17.1833  17.1858
    17.1898  17.1977  17.2084  17.2113  17.2173  17.2340  17.2410  17.2482
    17.4723  17.5044  17.5136  17.5251  17.5335  17.5451  17.5703  17.5757
    17.6811  17.6942  17.7200  17.7278  17.7352  17.7662  17.7730  17.7859
    17.7959  17.8031  17.8150  17.8236  17.8386  17.8433  17.8585  17.8723
    17.8758  17.8851  17.8922  17.9068  17.9141  17.9208  17.9287  17.9392
    17.9458  17.9545  17.9568  17.9716  17.9757  17.9784  17.9906  18.0007

     highest occupied, lowest unoccupied level (ev):     7.1807    7.3807

!    total energy              =  -36448.26219677 Ry
     estimated scf accuracy    <       0.00000201 Ry

     The total energy is the sum of the following terms:
     one-electron contribution =  -18596.67617237 Ry
     hartree contribution      =   11047.37283262 Ry
     xc contribution           =   -9410.59828943 Ry
     ewald contribution        =  -19490.56324271 Ry
     Hubbard energy            =       2.20267512 Ry

     convergence has been achieved in  12 iterations

     Writing all to output data dir ./tmp_In1.0Ga0.0As0.75Sb0.25_cube_3x3x3.6/In1.0Ga0.0As0.75Sb0.25_cube_3x3x3.6.save/ :
     XML data file, charge density, pseudopotentials, collected wavefunctions

     init_run     :    263.61s CPU    266.47s WALL (       1 calls)
     electrons    :  10088.72s CPU  10112.70s WALL (       1 calls)

     Called by init_run:
     wfcinit      :    253.35s CPU    255.84s WALL (       1 calls)
     potinit      :      2.10s CPU      2.16s WALL (       1 calls)
     hinit0       :      0.64s CPU      0.69s WALL (       1 calls)

     Called by electrons:
     c_bands      :   9679.02s CPU   9701.44s WALL (      13 calls)
     sum_band     :    403.04s CPU    403.81s WALL (      13 calls)
     v_of_rho     :      4.66s CPU      4.89s WALL (      13 calls)
     mix_rho      :      0.98s CPU      0.99s WALL (      13 calls)

     Called by c_bands:
     init_us_2    :     37.46s CPU     38.07s WALL (      28 calls)
     cegterg      :   9292.50s CPU   9313.46s WALL (      13 calls)

     Called by *egterg:
     cdiaghg      :    818.37s CPU    819.19s WALL (     105 calls)
     h_psi        :   5762.23s CPU   5774.03s WALL (     107 calls)
     g_psi        :      4.67s CPU      4.67s WALL (      93 calls)

     Called by h_psi:
     h_psi:calbec :    887.69s CPU    887.74s WALL (     107 calls)
     vloc_psi     :   1132.12s CPU   1134.16s WALL (     107 calls)
     add_vuspsi   :    869.77s CPU    872.51s WALL (     107 calls)
     vhpsi        :   2863.15s CPU   2863.34s WALL (     107 calls)

     General routines
     calbec       :   1122.79s CPU   1122.86s WALL (     228 calls)
     fft          :      2.87s CPU      3.09s WALL (     131 calls)
     ffts         :      0.25s CPU      0.25s WALL (      13 calls)
     fftw         :   1189.14s CPU   1191.47s WALL (  162992 calls)

     Parallel routines

     Hubbard U routines
     new_ns       :     61.98s CPU     61.98s WALL (      13 calls)
     vhpsi        :   2863.15s CPU   2863.34s WALL (     107 calls)

     PWSCF        :      2h53m CPU      2h54m WALL


   This run was terminated on:   5:42:58   8Apr2026            

=------------------------------------------------------------------------------=
   JOB DONE.
=------------------------------------------------------------------------------=
