
     Program PWSCF v.7.3.1 starts on  7Apr2026 at 19:45:29 

     This program is part of the open-source Quantum ESPRESSO suite
     for quantum simulation of materials; please cite
         "P. Giannozzi et al., J. Phys.:Condens. Matter 21 395502 (2009);
         "P. Giannozzi et al., J. Phys.:Condens. Matter 29 465901 (2017);
         "P. Giannozzi et al., J. Chem. Phys. 152 154105 (2020);
          URL http://www.quantum-espresso.org", 
     in publications or presentations arising from this work. More details at
     http://www.quantum-espresso.org/quote

     Parallel version (MPI), running on   640 processors

     MPI processes distributed on     5 nodes
     480728 MiB available memory on the printing compute node when the environment starts

     Reading input from In1.0Ga0.0As0.25Sb0.75_cube_3x3x3.6.scf.in
Warning: card &CELL ignored
Warning: card   CELL_DOFREE = 'ALL', ignored
Warning: card / ignored

     Current dimensions of program PWSCF are:
     Max number of different atomic species (ntypx) = 10
     Max number of k-points (npk) =  40000
     Max angular momentum in pseudopotentials (lmaxx) =  4

     K-points division:     npool     =       5
     R & G space division:  proc/nbgrp/npool/nimage =     128
     Subspace diagonalization in iterative solution of the eigenvalue problem:
     one sub-group per band group will be used
     custom distributed-memory algorithm (size of sub-group: 11* 11 procs)


     Parallelization info
     --------------------
     sticks:   dense  smooth     PW     G-vecs:    dense   smooth      PW
     Min         395     395    101                66843    66843    8701
     Max         396     396    102                66851    66851    8708
     Sum       50565   50565  12989              8556345  8556345 1114005

     Using Slab Decomposition



     bravais-lattice index     =            1
     lattice parameter (alat)  =      36.3884  a.u.
     unit-cell volume          =   48182.2615 (a.u.)^3
     number of atoms/cell      =          216
     number of atomic types    =            4
     number of electrons       =      3024.00
     number of Kohn-Sham states=         2160
     kinetic-energy cutoff     =     120.0000  Ry
     charge density cutoff     =     480.0000  Ry
     scf convergence threshold =      1.0E-05
     mixing beta               =       0.6500
     number of iterations used =            8  plain     mixing
     Exchange-correlation= PBE
                           (   1   4   3   4   0   0   0)
     Hubbard projectors: atomic
     Hubbard parameters of DFT+U (Dudarev formulation) in eV:
     U(As-4p) =  3.2600
     U(Ga-4p) = -2.3350
     U(In-5p) = -1.0575
     U(Sb-5p) =  3.1600

     Internal variables: lda_plus_u =T, lda_plus_u_kind = 0

     celldm(1)=  36.388353  celldm(2)=   0.000000  celldm(3)=   0.000000
     celldm(4)=   0.000000  celldm(5)=   0.000000  celldm(6)=   0.000000

     crystal axes: (cart. coord. in units of alat)
               a(1) = (   1.000000   0.000000   0.000000 )  
               a(2) = (   0.000000   1.000000   0.000000 )  
               a(3) = (   0.000000   0.000000   1.000000 )  

     reciprocal axes: (cart. coord. in units 2 pi/alat)
               b(1) = (  1.000000  0.000000  0.000000 )  
               b(2) = (  0.000000  1.000000  0.000000 )  
               b(3) = (  0.000000  0.000000  1.000000 )  


     PseudoPot. # 1 for As read from file:
     /work/i254/i254/gentles/data/pseudos/As.pbe.NC-SR.standard.v0.5.UPF
     MD5 check sum: bfe1a874457ce592347346129958e7cf
     Pseudo is Norm-conserving + core correction, Zval = 15.0
     Generated using ONCVPSP code by D. R. Hamann
     Using radial grid of 1358 points,  6 beta functions with: 
                l(1) =   0
                l(2) =   0
                l(3) =   1
                l(4) =   1
                l(5) =   2
                l(6) =   2

     PseudoPot. # 2 for Ga read from file:
     /work/i254/i254/gentles/data/pseudos/Ga.pbe.NC-SR.standard.v0.5.UPF
     MD5 check sum: 2bb81bf6f0a8d9832cf3329850435ecf
     Pseudo is Norm-conserving + core correction, Zval = 13.0
     Generated using ONCVPSP code by D. R. Hamann
     Using radial grid of 1902 points,  6 beta functions with: 
                l(1) =   0
                l(2) =   0
                l(3) =   1
                l(4) =   1
                l(5) =   2
                l(6) =   2

     PseudoPot. # 3 for In read from file:
     /work/i254/i254/gentles/data/pseudos/In.pbe.NC-SR.standard.v0.5.UPF
     MD5 check sum: 835f4bf908c982ff75c88e16816a8d7f
     Pseudo is Norm-conserving + core correction, Zval = 13.0
     Generated using ONCVPSP code by D. R. Hamann
     Using radial grid of 1964 points,  6 beta functions with: 
                l(1) =   0
                l(2) =   0
                l(3) =   1
                l(4) =   1
                l(5) =   2
                l(6) =   2

     PseudoPot. # 4 for Sb read from file:
     /work/i254/i254/gentles/data/pseudos/Sb.pbe.NC-SR.standard.v0.5.UPF
     MD5 check sum: 127f69b6101c45666faeae1b5d611565
     Pseudo is Norm-conserving + core correction, Zval = 15.0
     Generated using ONCVPSP code by D. R. Hamann
     Using radial grid of 1434 points,  6 beta functions with: 
                l(1) =   0
                l(2) =   0
                l(3) =   1
                l(4) =   1
                l(5) =   2
                l(6) =   2

     atomic species   valence    mass     pseudopotential
     As               15.00    74.92160     As( 1.00)
     Ga               13.00    69.72300     Ga( 1.00)
     In               13.00   114.81800     In( 1.00)
     Sb               15.00   121.76000     Sb( 1.00)

     No symmetry found



   Cartesian axes

     site n.     atom                  positions (alat units)
         1        In     tau(   1) = (  -0.0024050  -0.0022440  -0.0011820  )
         2        In     tau(   2) = (  -0.0005650   0.1655920   0.1660030  )
         3        In     tau(   3) = (   0.1677180  -0.0020190   0.1645150  )
         4        In     tau(   4) = (   0.1711500   0.1609580  -0.0058590  )
         5        Sb     tau(   5) = (   0.0837370   0.0819660   0.0808240  )
         6        Sb     tau(   6) = (   0.0802070   0.2524800   0.2511840  )
         7        Sb     tau(   7) = (   0.2506730   0.0830420   0.2492820  )
         8        Sb     tau(   8) = (   0.2495580   0.2491350   0.0810440  )
         9        In     tau(   9) = (  -0.0006440  -0.0015620   0.3337220  )
        10        In     tau(  10) = (  -0.0052500   0.1718930   0.4956550  )
        11        In     tau(  11) = (   0.1704810   0.0044020   0.5065200  )
        12        In     tau(  12) = (   0.1661550   0.1671680   0.3339210  )
        13        Sb     tau(  13) = (   0.0824400   0.0834360   0.4190770  )
        14        Sb     tau(  14) = (   0.0793720   0.2510870   0.5846880  )
        15        As     tau(  15) = (   0.2525600   0.0835890   0.5850770  )
        16        Sb     tau(  16) = (   0.2519560   0.2483240   0.4197700  )
        17        In     tau(  17) = (  -0.0018280  -0.0014450   0.6683390  )
        18        In     tau(  18) = (  -0.0050260   0.1711560   0.8270850  )
        19        In     tau(  19) = (   0.1690400   0.0032940   0.8370310  )
        20        In     tau(  20) = (   0.1690880   0.1630090   0.6622870  )
        21        Sb     tau(  21) = (   0.0834350   0.0839650   0.7499700  )
        22        Sb     tau(  22) = (   0.0836660   0.2472740   0.9142500  )
        23        As     tau(  23) = (   0.2521470   0.0809210   0.9156590  )
        24        Sb     tau(  24) = (   0.2521930   0.2475210   0.7482890  )
        25        In     tau(  25) = (   0.0008820   0.3323170  -0.0007460  )
        26        In     tau(  26) = (  -0.0065780   0.4971090   0.1698990  )
        27        In     tau(  27) = (   0.1659600   0.3346910   0.1650180  )
        28        In     tau(  28) = (   0.1608110   0.5072180  -0.0041760  )
        29        Sb     tau(  29) = (   0.0811770   0.4199410   0.0824300  )
        30        Sb     tau(  30) = (   0.0797710   0.5828910   0.2504240  )
        31        Sb     tau(  31) = (   0.2510110   0.4181480   0.2497710  )
        32        Sb     tau(  32) = (   0.2514420   0.5846450   0.0808430  )
        33        In     tau(  33) = (  -0.0098040   0.3349070   0.3333380  )
        34        In     tau(  34) = (  -0.0073270   0.4973330   0.5053180  )
        35        In     tau(  35) = (   0.1647860   0.3339010   0.5003620  )
        36        In     tau(  36) = (   0.1647880   0.5000670   0.3346120  )
        37        Sb     tau(  37) = (   0.0777740   0.4168930   0.4176390  )
        38        Sb     tau(  38) = (   0.0817870   0.5831710   0.5841890  )
        39        Sb     tau(  39) = (   0.2524060   0.4150170   0.5844280  )
        40        Sb     tau(  40) = (   0.2530040   0.5840430   0.4151840  )
        41        In     tau(  41) = (  -0.0095540   0.3354680   0.6674240  )
        42        In     tau(  42) = (   0.0028660   0.5070840   0.8365470  )
        43        In     tau(  43) = (   0.1662520   0.3326650   0.8302490  )
        44        In     tau(  44) = (   0.1670410   0.4994010   0.6676180  )
        45        Sb     tau(  45) = (   0.0794130   0.4177480   0.7500520  )
        46        As     tau(  46) = (   0.0818120   0.5894290   0.9155220  )
        47        Sb     tau(  47) = (   0.2470950   0.4182600   0.9165110  )
        48        Sb     tau(  48) = (   0.2477640   0.5856580   0.7535400  )
        49        In     tau(  49) = (  -0.0045500   0.6667490  -0.0076820  )
        50        In     tau(  50) = (  -0.0034930   0.8313800   0.1645270  )
        51        In     tau(  51) = (   0.1646790   0.6658650   0.1652120  )
        52        In     tau(  52) = (   0.1712700   0.8292120  -0.0041280  )
        53        Sb     tau(  53) = (   0.0813210   0.7485900   0.0785740  )
        54        Sb     tau(  54) = (   0.0825610   0.9145630   0.2481600  )
        55        Sb     tau(  55) = (   0.2513210   0.7485050   0.2497130  )
        56        Sb     tau(  56) = (   0.2535700   0.9159730   0.0794910  )
        57        In     tau(  57) = (  -0.0043620   0.6665590   0.3351260  )
        58        In     tau(  58) = (  -0.0026480   0.8335410   0.5015170  )
        59        In     tau(  59) = (   0.1670720   0.6662210   0.4996590  )
        60        In     tau(  60) = (   0.1670010   0.8328100   0.3341820  )
        61        Sb     tau(  61) = (   0.0815360   0.7499660   0.4173770  )
        62        Sb     tau(  62) = (   0.0840560   0.9156680   0.5861660  )
        63        Sb     tau(  63) = (   0.2479770   0.7511140   0.5863250  )
        64        Sb     tau(  64) = (   0.2496630   0.9183180   0.4187040  )
        65        In     tau(  65) = (   0.0034350   0.6706960   0.6715130  )
        66        In     tau(  66) = (  -0.0022460   0.8260180   0.8343330  )
        67        In     tau(  67) = (   0.1633380   0.6716980   0.8371000  )
        68        In     tau(  68) = (   0.1614160   0.8292660   0.6754470  )
        69        As     tau(  69) = (   0.0815910   0.7488320   0.7551120  )
        70        Sb     tau(  70) = (   0.0833780   0.9136280   0.9154620  )
        71        As     tau(  71) = (   0.2501960   0.7514000   0.9133400  )
        72        Sb     tau(  72) = (   0.2506500   0.9162610   0.7523540  )
        73        In     tau(  73) = (   0.3352720  -0.0001940  -0.0083340  )
        74        In     tau(  74) = (   0.3352020   0.1658460   0.1642270  )
        75        In     tau(  75) = (   0.5022410  -0.0009470   0.1644070  )
        76        In     tau(  76) = (   0.5100400   0.1650530  -0.0004600  )
        77        Sb     tau(  77) = (   0.4193800   0.0824620   0.0786640  )
        78        Sb     tau(  78) = (   0.4198640   0.2496380   0.2479780  )
        79        Sb     tau(  79) = (   0.5856810   0.0815480   0.2503330  )
        80        As     tau(  80) = (   0.5856660   0.2484430   0.0812430  )
        81        In     tau(  81) = (   0.3353460   0.0004940   0.3347530  )
        82        In     tau(  82) = (   0.3350440   0.1652550   0.5082430  )
        83        In     tau(  83) = (   0.5107750  -0.0022450   0.4987470  )
        84        In     tau(  84) = (   0.5011460   0.1655490   0.3345370  )
        85        Sb     tau(  85) = (   0.4195830   0.0822220   0.4213140  )
        86        As     tau(  86) = (   0.4181030   0.2470530   0.5836230  )
        87        As     tau(  87) = (   0.5821080   0.0829770   0.5822700  )
        88        Sb     tau(  88) = (   0.5832330   0.2493920   0.4204350  )
        89        In     tau(  89) = (   0.3320810   0.0005360   0.6638070  )
        90        In     tau(  90) = (   0.3315390   0.1622990   0.8367320  )
        91        In     tau(  91) = (   0.4996640  -0.0022390   0.8390630  )
        92        In     tau(  92) = (   0.4998390   0.1647810   0.6600040  )
        93        Sb     tau(  93) = (   0.4177430   0.0817240   0.7500670  )
        94        Sb     tau(  94) = (   0.4186650   0.2476770   0.9187000  )
        95        As     tau(  95) = (   0.5830950   0.0792690   0.9168030  )
        96        Sb     tau(  96) = (   0.5826540   0.2470810   0.7486850  )
        97        In     tau(  97) = (   0.3345140   0.3359050   0.0004040  )
        98        In     tau(  98) = (   0.3385290   0.5044710   0.1695800  )
        99        In     tau(  99) = (   0.5066060   0.3294590   0.1614520  )
       100        In     tau( 100) = (   0.5066000   0.5067290   0.0044050  )
       101        Sb     tau( 101) = (   0.4211160   0.4190640   0.0841470  )
       102        As     tau( 102) = (   0.4201250   0.5842660   0.2483500  )
       103        Sb     tau( 103) = (   0.5844480   0.4190620   0.2482110  )
       104        As     tau( 104) = (   0.5852620   0.5864790   0.0867170  )
       105        In     tau( 105) = (   0.3347190   0.3327360   0.3333050  )
       106        In     tau( 106) = (   0.3355810   0.5011630   0.5016850  )
       107        In     tau( 107) = (   0.4966010   0.3303750   0.5046560  )
       108        In     tau( 108) = (   0.4986090   0.5041580   0.3303560  )
       109        Sb     tau( 109) = (   0.4183390   0.4173360   0.4168970  )
       110        Sb     tau( 110) = (   0.4203720   0.5858750   0.5857070  )
       111        Sb     tau( 111) = (   0.5840150   0.4175770   0.5844890  )
       112        Sb     tau( 112) = (   0.5868220   0.5853800   0.4163990  )
       113        In     tau( 113) = (   0.3402160   0.3281930   0.6636660  )
       114        In     tau( 114) = (   0.3342890   0.5002050   0.8341980  )
       115        In     tau( 115) = (   0.5000260   0.3333230   0.8335060  )
       116        In     tau( 116) = (   0.5067600   0.5055470   0.6711360  )
       117        Sb     tau( 117) = (   0.4188180   0.4180590   0.7484040  )
       118        Sb     tau( 118) = (   0.4203980   0.5853420   0.9159320  )
       119        Sb     tau( 119) = (   0.5848830   0.4192810   0.9168300  )
       120        As     tau( 120) = (   0.5882990   0.5863680   0.7474790  )
       121        In     tau( 121) = (   0.3300730   0.6716090  -0.0068970  )
       122        In     tau( 122) = (   0.3361360   0.8326610   0.1663450  )
       123        In     tau( 123) = (   0.5017940   0.6622100   0.1666840  )
       124        In     tau( 124) = (   0.4968080   0.8366470  -0.0050120  )
       125        Sb     tau( 125) = (   0.4181640   0.7483840   0.0808890  )
       126        Sb     tau( 126) = (   0.4202020   0.9162070   0.2513460  )
       127        Sb     tau( 127) = (   0.5879460   0.7492740   0.2491870  )
       128        Sb     tau( 128) = (   0.5862640   0.9150320   0.0796130  )
       129        In     tau( 129) = (   0.3409940   0.6638980   0.3289340  )
       130        In     tau( 130) = (   0.3343580   0.8329890   0.5006730  )
       131        In     tau( 131) = (   0.5074480   0.6710910   0.5051780  )
       132        In     tau( 132) = (   0.5074110   0.8363840   0.3369890  )
       133        Sb     tau( 133) = (   0.4211420   0.7498980   0.4172620  )
       134        Sb     tau( 134) = (   0.4219140   0.9164350   0.5823040  )
       135        As     tau( 135) = (   0.5887370   0.7492360   0.5850180  )
       136        As     tau( 136) = (   0.5879760   0.9143710   0.4175980  )
       137        In     tau( 137) = (   0.3334580   0.6678660   0.6690260  )
       138        In     tau( 138) = (   0.3359330   0.8338430   0.8388210  )
       139        In     tau( 139) = (   0.5080590   0.6635360   0.8290250  )
       140        In     tau( 140) = (   0.5067120   0.8295990   0.6644370  )
       141        Sb     tau( 141) = (   0.4202590   0.7504200   0.7516950  )
       142        As     tau( 142) = (   0.4162570   0.9171330   0.9160320  )
       143        Sb     tau( 143) = (   0.5858930   0.7511580   0.9162240  )
       144        Sb     tau( 144) = (   0.5856150   0.9165810   0.7520200  )
       145        In     tau( 145) = (   0.6674380  -0.0031800  -0.0094330  )
       146        In     tau( 146) = (   0.6647030   0.1694560   0.1631540  )
       147        In     tau( 147) = (   0.8258820  -0.0050430   0.1726800  )
       148        In     tau( 148) = (   0.8326620   0.1659550   0.0008830  )
       149        Sb     tau( 149) = (   0.7471690   0.0799430   0.0818950  )
       150        Sb     tau( 150) = (   0.7493240   0.2520520   0.2509610  )
       151        Sb     tau( 151) = (   0.9137590   0.0830150   0.2514840  )
       152        Sb     tau( 152) = (   0.9152250   0.2519110   0.0847780  )
       153        In     tau( 153) = (   0.6675870  -0.0091830   0.3324510  )
       154        In     tau( 154) = (   0.6643330   0.1617670   0.5044080  )
       155        In     tau( 155) = (   0.8315710  -0.0008730   0.5032990  )
       156        In     tau( 156) = (   0.8338070   0.1706120   0.3384180  )
       157        Sb     tau( 157) = (   0.7481950   0.0806250   0.4166630  )
       158        Sb     tau( 158) = (   0.7526020   0.2491410   0.5828880  )
       159        Sb     tau( 159) = (   0.9158330   0.0856390   0.5848370  )
       160        As     tau( 160) = (   0.9145960   0.2527300   0.4161930  )
       161        In     tau( 161) = (   0.6614740   0.0044550   0.6632300  )
       162        In     tau( 162) = (   0.6611460   0.1602660   0.8364680  )
       163        In     tau( 163) = (   0.8286290  -0.0071780   0.8378440  )
       164        In     tau( 164) = (   0.8353430   0.1696710   0.6729420  )
       165        Sb     tau( 165) = (   0.7490600   0.0810050   0.7516500  )
       166        Sb     tau( 166) = (   0.7478810   0.2488640   0.9156370  )
       167        Sb     tau( 167) = (   0.9149710   0.0831710   0.9136620  )
       168        As     tau( 168) = (   0.9146990   0.2524610   0.7490800  )
       169        In     tau( 169) = (   0.6648320   0.3314560   0.0033360  )
       170        In     tau( 170) = (   0.6668290   0.5095920   0.1679380  )
       171        In     tau( 171) = (   0.8350090   0.3390900   0.1709500  )
       172        In     tau( 172) = (   0.8305570   0.4993590  -0.0033570  )
       173        Sb     tau( 173) = (   0.7478300   0.4194730   0.0856390  )
       174        As     tau( 174) = (   0.7504290   0.5861660   0.2474270  )
       175        As     tau( 175) = (   0.9139910   0.4181350   0.2510630  )
       176        Sb     tau( 176) = (   0.9134670   0.5834810   0.0817710  )
       177        In     tau( 177) = (   0.6659620   0.3359050   0.3368570  )
       178        In     tau( 178) = (   0.6709470   0.5040450   0.5040200  )
       179        In     tau( 179) = (   0.8390800   0.3341360   0.4994010  )
       180        In     tau( 180) = (   0.8313800   0.5022790   0.3236440  )
       181        Sb     tau( 181) = (   0.7536880   0.4200690   0.4169100  )
       182        As     tau( 182) = (   0.7483950   0.5868280   0.5844960  )
       183        As     tau( 183) = (   0.9131210   0.4162620   0.5839710  )
       184        Sb     tau( 184) = (   0.9100400   0.5822320   0.4177630  )
       185        In     tau( 185) = (   0.6681780   0.3327780   0.6670290  )
       186        In     tau( 186) = (   0.6655680   0.5060350   0.8296200  )
       187        In     tau( 187) = (   0.8349550   0.3315130   0.8293710  )
       188        In     tau( 188) = (   0.8328720   0.5031870   0.6583310  )
       189        Sb     tau( 189) = (   0.7516840   0.4202410   0.7476320  )
       190        Sb     tau( 190) = (   0.7469780   0.5893120   0.9177790  )
       191        Sb     tau( 191) = (   0.9179270   0.4168150   0.9145240  )
       192        Sb     tau( 192) = (   0.9148950   0.5859530   0.7498490  )
       193        In     tau( 193) = (   0.6645150   0.6698970   0.0092890  )
       194        In     tau( 194) = (   0.6736760   0.8321630   0.1637600  )
       195        In     tau( 195) = (   0.8258260   0.6673640   0.1637560  )
       196        In     tau( 196) = (   0.8291670   0.8275300  -0.0040300  )
       197        As     tau( 197) = (   0.7501850   0.7502140   0.0823070  )
       198        As     tau( 198) = (   0.7472080   0.9117970   0.2511410  )
       199        Sb     tau( 199) = (   0.9102940   0.7494390   0.2501520  )
       200        Sb     tau( 200) = (   0.9099030   0.9147690   0.0822500  )
       201        In     tau( 201) = (   0.6752850   0.6663520   0.3327340  )
       202        In     tau( 202) = (   0.6635110   0.8276900   0.4965500  )
       203        In     tau( 203) = (   0.8240890   0.6677640   0.5002740  )
       204        In     tau( 204) = (   0.8239220   0.8317650   0.3351380  )
       205        As     tau( 205) = (   0.7471450   0.7493610   0.4172770  )
       206        Sb     tau( 206) = (   0.7443180   0.9139100   0.5831290  )
       207        Sb     tau( 207) = (   0.9133490   0.7485030   0.5851720  )
       208        Sb     tau( 208) = (   0.9126960   0.9153490   0.4163810  )
       209        In     tau( 209) = (   0.6688190   0.6675280   0.6672130  )
       210        In     tau( 210) = (   0.6745140   0.8322260   0.8322520  )
       211        In     tau( 211) = (   0.8311110   0.6738940   0.8324400  )
       212        In     tau( 212) = (   0.8259260   0.8289140   0.6699480  )
       213        As     tau( 213) = (   0.7481310   0.7484510   0.7500310  )
       214        As     tau( 214) = (   0.7501810   0.9115400   0.9165550  )
       215        As     tau( 215) = (   0.9134200   0.7495810   0.9148960  )
       216        Sb     tau( 216) = (   0.9136770   0.9121010   0.7514760  )

     number of k points=     8
                       cart. coord. in units 2pi/alat
        k(    1) = (   0.0000000   0.0000000   0.0000000), wk =   0.2500000
        k(    2) = (   0.0000000   0.0000000  -0.5000000), wk =   0.2500000
        k(    3) = (   0.0000000  -0.5000000  -0.5000000), wk =   0.2500000
        k(    4) = (  -0.5000000  -0.5000000  -0.5000000), wk =   0.2500000
        k(    5) = (  -0.5000000   0.0000000   0.0000000), wk =   0.2500000
        k(    6) = (   0.0000000  -0.5000000   0.0000000), wk =   0.2500000
        k(    7) = (  -0.5000000   0.0000000   0.5000000), wk =   0.2500000
        k(    8) = (  -0.5000000   0.5000000   0.0000000), wk =   0.2500000

     Dense  grid:  8556345 G-vectors     FFT dimensions: ( 256, 256, 256)

     Estimated max dynamical RAM per process >       2.79 GB

     Estimated total dynamical RAM >    1776.99 GB

     Initial potential from superposition of free atoms

     starting charge    3023.5275, renormalised to    3024.0000

     STARTING HUBBARD OCCUPATIONS:

     =================== HUBBARD OCCUPATIONS ===================
     ------------------------ ATOM    1 ------------------------
     Tr[ns(  1)] =   1.00000
     eigenvalues:
       0.167  0.167  0.167
     eigenvectors (columns):
       1.000  0.000  0.000
       0.000  1.000  0.000
       0.000  0.000  1.000
     occupation matrix ns (before diag.):
       0.167  0.000  0.000
       0.000  0.167  0.000
       0.000  0.000  0.167
     ------------------------ ATOM    2 ------------------------
     Tr[ns(  2)] =   1.00000
     eigenvalues:
       0.167  0.167  0.167
     eigenvectors (columns):
       1.000  0.000  0.000
       0.000  1.000  0.000
       0.000  0.000  1.000
     occupation matrix ns (before diag.):
       0.167  0.000  0.000
       0.000  0.167  0.000
       0.000  0.000  0.167
     ------------------------ ATOM    3 ------------------------
     Tr[ns(  3)] =   1.00000
     eigenvalues:
       0.167  0.167  0.167
     eigenvectors (columns):
       1.000  0.000  0.000
       0.000  1.000  0.000
       0.000  0.000  1.000
     occupation matrix ns (before diag.):
       0.167  0.000  0.000
       0.000  0.167  0.000
       0.000  0.000  0.167
     ------------------------ ATOM    4 ------------------------
     Tr[ns(  4)] =   1.00000
     eigenvalues:
       0.167  0.167  0.167
     eigenvectors (columns):
       1.000  0.000  0.000
       0.000  1.000  0.000
       0.000  0.000  1.000
     occupation matrix ns (before diag.):
       0.167  0.000  0.000
       0.000  0.167  0.000
       0.000  0.000  0.167
     ------------------------ ATOM    5 ------------------------
     Tr[ns(  5)] =   3.00000
     eigenvalues:
       0.500  0.500  0.500
     eigenvectors (columns):
       1.000  0.000  0.000
       0.000  1.000  0.000
       0.000  0.000  1.000
     occupation matrix ns (before diag.):
       0.500  0.000  0.000
       0.000  0.500  0.000
       0.000  0.000  0.500
     ------------------------ ATOM    6 ------------------------
     Tr[ns(  6)] =   3.00000
     eigenvalues:
       0.500  0.500  0.500
     eigenvectors (columns):
       1.000  0.000  0.000
       0.000  1.000  0.000
       0.000  0.000  1.000
     occupation matrix ns (before diag.):
       0.500  0.000  0.000
       0.000  0.500  0.000
       0.000  0.000  0.500
     ------------------------ ATOM    7 ------------------------
     Tr[ns(  7)] =   3.00000
     eigenvalues:
       0.500  0.500  0.500
     eigenvectors (columns):
       1.000  0.000  0.000
       0.000  1.000  0.000
       0.000  0.000  1.000
     occupation matrix ns (before diag.):
       0.500  0.000  0.000
       0.000  0.500  0.000
       0.000  0.000  0.500
     ------------------------ ATOM    8 ------------------------
     Tr[ns(  8)] =   3.00000
     eigenvalues:
       0.500  0.500  0.500
     eigenvectors (columns):
       1.000  0.000  0.000
       0.000  1.000  0.000
       0.000  0.000  1.000
     occupation matrix ns (before diag.):
       0.500  0.000  0.000
       0.000  0.500  0.000
       0.000  0.000  0.500
     ------------------------ ATOM    9 ------------------------
     Tr[ns(  9)] =   1.00000
     eigenvalues:
       0.167  0.167  0.167
     eigenvectors (columns):
       1.000  0.000  0.000
       0.000  1.000  0.000
       0.000  0.000  1.000
     occupation matrix ns (before diag.):
       0.167  0.000  0.000
       0.000  0.167  0.000
       0.000  0.000  0.167
     ------------------------ ATOM   10 ------------------------
     Tr[ns( 10)] =   1.00000
     eigenvalues:
       0.167  0.167  0.167
     eigenvectors (columns):
       1.000  0.000  0.000
       0.000  1.000  0.000
       0.000  0.000  1.000
     occupation matrix ns (before diag.):
       0.167  0.000  0.000
       0.000  0.167  0.000
       0.000  0.000  0.167
     ------------------------ ATOM   11 ------------------------
     Tr[ns( 11)] =   1.00000
     eigenvalues:
       0.167  0.167  0.167
     eigenvectors (columns):
       1.000  0.000  0.000
       0.000  1.000  0.000
       0.000  0.000  1.000
     occupation matrix ns (before diag.):
       0.167  0.000  0.000
       0.000  0.167  0.000
       0.000  0.000  0.167
     ------------------------ ATOM   12 ------------------------
     Tr[ns( 12)] =   1.00000
     eigenvalues:
       0.167  0.167  0.167
     eigenvectors (columns):
       1.000  0.000  0.000
       0.000  1.000  0.000
       0.000  0.000  1.000
     occupation matrix ns (before diag.):
       0.167  0.000  0.000
       0.000  0.167  0.000
       0.000  0.000  0.167
     ------------------------ ATOM   13 ------------------------
     Tr[ns( 13)] =   3.00000
     eigenvalues:
       0.500  0.500  0.500
     eigenvectors (columns):
       1.000  0.000  0.000
       0.000  1.000  0.000
       0.000  0.000  1.000
     occupation matrix ns (before diag.):
       0.500  0.000  0.000
       0.000  0.500  0.000
       0.000  0.000  0.500
     ------------------------ ATOM   14 ------------------------
     Tr[ns( 14)] =   3.00000
     eigenvalues:
       0.500  0.500  0.500
     eigenvectors (columns):
       1.000  0.000  0.000
       0.000  1.000  0.000
       0.000  0.000  1.000
     occupation matrix ns (before diag.):
       0.500  0.000  0.000
       0.000  0.500  0.000
       0.000  0.000  0.500
     ------------------------ ATOM   15 ------------------------
     Tr[ns( 15)] =   3.00000
     eigenvalues:
       0.500  0.500  0.500
     eigenvectors (columns):
       1.000  0.000  0.000
       0.000  1.000  0.000
       0.000  0.000  1.000
     occupation matrix ns (before diag.):
       0.500  0.000  0.000
       0.000  0.500  0.000
       0.000  0.000  0.500
     ------------------------ ATOM   16 ------------------------
     Tr[ns( 16)] =   3.00000
     eigenvalues:
       0.500  0.500  0.500
     eigenvectors (columns):
       1.000  0.000  0.000
       0.000  1.000  0.000
       0.000  0.000  1.000
     occupation matrix ns (before diag.):
       0.500  0.000  0.000
       0.000  0.500  0.000
       0.000  0.000  0.500
     ------------------------ ATOM   17 ------------------------
     Tr[ns( 17)] =   1.00000
     eigenvalues:
       0.167  0.167  0.167
     eigenvectors (columns):
       1.000  0.000  0.000
       0.000  1.000  0.000
       0.000  0.000  1.000
     occupation matrix ns (before diag.):
       0.167  0.000  0.000
       0.000  0.167  0.000
       0.000  0.000  0.167
     ------------------------ ATOM   18 ------------------------
     Tr[ns( 18)] =   1.00000
     eigenvalues:
       0.167  0.167  0.167
     eigenvectors (columns):
       1.000  0.000  0.000
       0.000  1.000  0.000
       0.000  0.000  1.000
     occupation matrix ns (before diag.):
       0.167  0.000  0.000
       0.000  0.167  0.000
       0.000  0.000  0.167
     ------------------------ ATOM   19 ------------------------
     Tr[ns( 19)] =   1.00000
     eigenvalues:
       0.167  0.167  0.167
     eigenvectors (columns):
       1.000  0.000  0.000
       0.000  1.000  0.000
       0.000  0.000  1.000
     occupation matrix ns (before diag.):
       0.167  0.000  0.000
       0.000  0.167  0.000
       0.000  0.000  0.167
     ------------------------ ATOM   20 ------------------------
     Tr[ns( 20)] =   1.00000
     eigenvalues:
       0.167  0.167  0.167
     eigenvectors (columns):
       1.000  0.000  0.000
       0.000  1.000  0.000
       0.000  0.000  1.000
     occupation matrix ns (before diag.):
       0.167  0.000  0.000
       0.000  0.167  0.000
       0.000  0.000  0.167
     ------------------------ ATOM   21 ------------------------
     Tr[ns( 21)] =   3.00000
     eigenvalues:
       0.500  0.500  0.500
     eigenvectors (columns):
       1.000  0.000  0.000
       0.000  1.000  0.000
       0.000  0.000  1.000
     occupation matrix ns (before diag.):
       0.500  0.000  0.000
       0.000  0.500  0.000
       0.000  0.000  0.500
     ------------------------ ATOM   22 ------------------------
     Tr[ns( 22)] =   3.00000
     eigenvalues:
       0.500  0.500  0.500
     eigenvectors (columns):
       1.000  0.000  0.000
       0.000  1.000  0.000
       0.000  0.000  1.000
     occupation matrix ns (before diag.):
       0.500  0.000  0.000
       0.000  0.500  0.000
       0.000  0.000  0.500
     ------------------------ ATOM   23 ------------------------
     Tr[ns( 23)] =   3.00000
     eigenvalues:
       0.500  0.500  0.500
     eigenvectors (columns):
       1.000  0.000  0.000
       0.000  1.000  0.000
       0.000  0.000  1.000
     occupation matrix ns (before diag.):
       0.500  0.000  0.000
       0.000  0.500  0.000
       0.000  0.000  0.500
     ------------------------ ATOM   24 ------------------------
     Tr[ns( 24)] =   3.00000
     eigenvalues:
       0.500  0.500  0.500
     eigenvectors (columns):
       1.000  0.000  0.000
       0.000  1.000  0.000
       0.000  0.000  1.000
     occupation matrix ns (before diag.):
       0.500  0.000  0.000
       0.000  0.500  0.000
       0.000  0.000  0.500
     ------------------------ ATOM   25 ------------------------
     Tr[ns( 25)] =   1.00000
     eigenvalues:
       0.167  0.167  0.167
     eigenvectors (columns):
       1.000  0.000  0.000
       0.000  1.000  0.000
       0.000  0.000  1.000
     occupation matrix ns (before diag.):
       0.167  0.000  0.000
       0.000  0.167  0.000
       0.000  0.000  0.167
     ------------------------ ATOM   26 ------------------------
     Tr[ns( 26)] =   1.00000
     eigenvalues:
       0.167  0.167  0.167
     eigenvectors (columns):
       1.000  0.000  0.000
       0.000  1.000  0.000
       0.000  0.000  1.000
     occupation matrix ns (before diag.):
       0.167  0.000  0.000
       0.000  0.167  0.000
       0.000  0.000  0.167
     ------------------------ ATOM   27 ------------------------
     Tr[ns( 27)] =   1.00000
     eigenvalues:
       0.167  0.167  0.167
     eigenvectors (columns):
       1.000  0.000  0.000
       0.000  1.000  0.000
       0.000  0.000  1.000
     occupation matrix ns (before diag.):
       0.167  0.000  0.000
       0.000  0.167  0.000
       0.000  0.000  0.167
     ------------------------ ATOM   28 ------------------------
     Tr[ns( 28)] =   1.00000
     eigenvalues:
       0.167  0.167  0.167
     eigenvectors (columns):
       1.000  0.000  0.000
       0.000  1.000  0.000
       0.000  0.000  1.000
     occupation matrix ns (before diag.):
       0.167  0.000  0.000
       0.000  0.167  0.000
       0.000  0.000  0.167
     ------------------------ ATOM   29 ------------------------
     Tr[ns( 29)] =   3.00000
     eigenvalues:
       0.500  0.500  0.500
     eigenvectors (columns):
       1.000  0.000  0.000
       0.000  1.000  0.000
       0.000  0.000  1.000
     occupation matrix ns (before diag.):
       0.500  0.000  0.000
       0.000  0.500  0.000
       0.000  0.000  0.500
     ------------------------ ATOM   30 ------------------------
     Tr[ns( 30)] =   3.00000
     eigenvalues:
       0.500  0.500  0.500
     eigenvectors (columns):
       1.000  0.000  0.000
       0.000  1.000  0.000
       0.000  0.000  1.000
     occupation matrix ns (before diag.):
       0.500  0.000  0.000
       0.000  0.500  0.000
       0.000  0.000  0.500
     ------------------------ ATOM   31 ------------------------
     Tr[ns( 31)] =   3.00000
     eigenvalues:
       0.500  0.500  0.500
     eigenvectors (columns):
       1.000  0.000  0.000
       0.000  1.000  0.000
       0.000  0.000  1.000
     occupation matrix ns (before diag.):
       0.500  0.000  0.000
       0.000  0.500  0.000
       0.000  0.000  0.500
     ------------------------ ATOM   32 ------------------------
     Tr[ns( 32)] =   3.00000
     eigenvalues:
       0.500  0.500  0.500
     eigenvectors (columns):
       1.000  0.000  0.000
       0.000  1.000  0.000
       0.000  0.000  1.000
     occupation matrix ns (before diag.):
       0.500  0.000  0.000
       0.000  0.500  0.000
       0.000  0.000  0.500
     ------------------------ ATOM   33 ------------------------
     Tr[ns( 33)] =   1.00000
     eigenvalues:
       0.167  0.167  0.167
     eigenvectors (columns):
       1.000  0.000  0.000
       0.000  1.000  0.000
       0.000  0.000  1.000
     occupation matrix ns (before diag.):
       0.167  0.000  0.000
       0.000  0.167  0.000
       0.000  0.000  0.167
     ------------------------ ATOM   34 ------------------------
     Tr[ns( 34)] =   1.00000
     eigenvalues:
       0.167  0.167  0.167
     eigenvectors (columns):
       1.000  0.000  0.000
       0.000  1.000  0.000
       0.000  0.000  1.000
     occupation matrix ns (before diag.):
       0.167  0.000  0.000
       0.000  0.167  0.000
       0.000  0.000  0.167
     ------------------------ ATOM   35 ------------------------
     Tr[ns( 35)] =   1.00000
     eigenvalues:
       0.167  0.167  0.167
     eigenvectors (columns):
       1.000  0.000  0.000
       0.000  1.000  0.000
       0.000  0.000  1.000
     occupation matrix ns (before diag.):
       0.167  0.000  0.000
       0.000  0.167  0.000
       0.000  0.000  0.167
     ------------------------ ATOM   36 ------------------------
     Tr[ns( 36)] =   1.00000
     eigenvalues:
       0.167  0.167  0.167
     eigenvectors (columns):
       1.000  0.000  0.000
       0.000  1.000  0.000
       0.000  0.000  1.000
     occupation matrix ns (before diag.):
       0.167  0.000  0.000
       0.000  0.167  0.000
       0.000  0.000  0.167
     ------------------------ ATOM   37 ------------------------
     Tr[ns( 37)] =   3.00000
     eigenvalues:
       0.500  0.500  0.500
     eigenvectors (columns):
       1.000  0.000  0.000
       0.000  1.000  0.000
       0.000  0.000  1.000
     occupation matrix ns (before diag.):
       0.500  0.000  0.000
       0.000  0.500  0.000
       0.000  0.000  0.500
     ------------------------ ATOM   38 ------------------------
     Tr[ns( 38)] =   3.00000
     eigenvalues:
       0.500  0.500  0.500
     eigenvectors (columns):
       1.000  0.000  0.000
       0.000  1.000  0.000
       0.000  0.000  1.000
     occupation matrix ns (before diag.):
       0.500  0.000  0.000
       0.000  0.500  0.000
       0.000  0.000  0.500
     ------------------------ ATOM   39 ------------------------
     Tr[ns( 39)] =   3.00000
     eigenvalues:
       0.500  0.500  0.500
     eigenvectors (columns):
       1.000  0.000  0.000
       0.000  1.000  0.000
       0.000  0.000  1.000
     occupation matrix ns (before diag.):
       0.500  0.000  0.000
       0.000  0.500  0.000
       0.000  0.000  0.500
     ------------------------ ATOM   40 ------------------------
     Tr[ns( 40)] =   3.00000
     eigenvalues:
       0.500  0.500  0.500
     eigenvectors (columns):
       1.000  0.000  0.000
       0.000  1.000  0.000
       0.000  0.000  1.000
     occupation matrix ns (before diag.):
       0.500  0.000  0.000
       0.000  0.500  0.000
       0.000  0.000  0.500
     ------------------------ ATOM   41 ------------------------
     Tr[ns( 41)] =   1.00000
     eigenvalues:
       0.167  0.167  0.167
     eigenvectors (columns):
       1.000  0.000  0.000
       0.000  1.000  0.000
       0.000  0.000  1.000
     occupation matrix ns (before diag.):
       0.167  0.000  0.000
       0.000  0.167  0.000
       0.000  0.000  0.167
     ------------------------ ATOM   42 ------------------------
     Tr[ns( 42)] =   1.00000
     eigenvalues:
       0.167  0.167  0.167
     eigenvectors (columns):
       1.000  0.000  0.000
       0.000  1.000  0.000
       0.000  0.000  1.000
     occupation matrix ns (before diag.):
       0.167  0.000  0.000
       0.000  0.167  0.000
       0.000  0.000  0.167
     ------------------------ ATOM   43 ------------------------
     Tr[ns( 43)] =   1.00000
     eigenvalues:
       0.167  0.167  0.167
     eigenvectors (columns):
       1.000  0.000  0.000
       0.000  1.000  0.000
       0.000  0.000  1.000
     occupation matrix ns (before diag.):
       0.167  0.000  0.000
       0.000  0.167  0.000
       0.000  0.000  0.167
     ------------------------ ATOM   44 ------------------------
     Tr[ns( 44)] =   1.00000
     eigenvalues:
       0.167  0.167  0.167
     eigenvectors (columns):
       1.000  0.000  0.000
       0.000  1.000  0.000
       0.000  0.000  1.000
     occupation matrix ns (before diag.):
       0.167  0.000  0.000
       0.000  0.167  0.000
       0.000  0.000  0.167
     ------------------------ ATOM   45 ------------------------
     Tr[ns( 45)] =   3.00000
     eigenvalues:
       0.500  0.500  0.500
     eigenvectors (columns):
       1.000  0.000  0.000
       0.000  1.000  0.000
       0.000  0.000  1.000
     occupation matrix ns (before diag.):
       0.500  0.000  0.000
       0.000  0.500  0.000
       0.000  0.000  0.500
     ------------------------ ATOM   46 ------------------------
     Tr[ns( 46)] =   3.00000
     eigenvalues:
       0.500  0.500  0.500
     eigenvectors (columns):
       1.000  0.000  0.000
       0.000  1.000  0.000
       0.000  0.000  1.000
     occupation matrix ns (before diag.):
       0.500  0.000  0.000
       0.000  0.500  0.000
       0.000  0.000  0.500
     ------------------------ ATOM   47 ------------------------
     Tr[ns( 47)] =   3.00000
     eigenvalues:
       0.500  0.500  0.500
     eigenvectors (columns):
       1.000  0.000  0.000
       0.000  1.000  0.000
       0.000  0.000  1.000
     occupation matrix ns (before diag.):
       0.500  0.000  0.000
       0.000  0.500  0.000
       0.000  0.000  0.500
     ------------------------ ATOM   48 ------------------------
     Tr[ns( 48)] =   3.00000
     eigenvalues:
       0.500  0.500  0.500
     eigenvectors (columns):
       1.000  0.000  0.000
       0.000  1.000  0.000
       0.000  0.000  1.000
     occupation matrix ns (before diag.):
       0.500  0.000  0.000
       0.000  0.500  0.000
       0.000  0.000  0.500
     ------------------------ ATOM   49 ------------------------
     Tr[ns( 49)] =   1.00000
     eigenvalues:
       0.167  0.167  0.167
     eigenvectors (columns):
       1.000  0.000  0.000
       0.000  1.000  0.000
       0.000  0.000  1.000
     occupation matrix ns (before diag.):
       0.167  0.000  0.000
       0.000  0.167  0.000
       0.000  0.000  0.167
     ------------------------ ATOM   50 ------------------------
     Tr[ns( 50)] =   1.00000
     eigenvalues:
       0.167  0.167  0.167
     eigenvectors (columns):
       1.000  0.000  0.000
       0.000  1.000  0.000
       0.000  0.000  1.000
     occupation matrix ns (before diag.):
       0.167  0.000  0.000
       0.000  0.167  0.000
       0.000  0.000  0.167
     ------------------------ ATOM   51 ------------------------
     Tr[ns( 51)] =   1.00000
     eigenvalues:
       0.167  0.167  0.167
     eigenvectors (columns):
       1.000  0.000  0.000
       0.000  1.000  0.000
       0.000  0.000  1.000
     occupation matrix ns (before diag.):
       0.167  0.000  0.000
       0.000  0.167  0.000
       0.000  0.000  0.167
     ------------------------ ATOM   52 ------------------------
     Tr[ns( 52)] =   1.00000
     eigenvalues:
       0.167  0.167  0.167
     eigenvectors (columns):
       1.000  0.000  0.000
       0.000  1.000  0.000
       0.000  0.000  1.000
     occupation matrix ns (before diag.):
       0.167  0.000  0.000
       0.000  0.167  0.000
       0.000  0.000  0.167
     ------------------------ ATOM   53 ------------------------
     Tr[ns( 53)] =   3.00000
     eigenvalues:
       0.500  0.500  0.500
     eigenvectors (columns):
       1.000  0.000  0.000
       0.000  1.000  0.000
       0.000  0.000  1.000
     occupation matrix ns (before diag.):
       0.500  0.000  0.000
       0.000  0.500  0.000
       0.000  0.000  0.500
     ------------------------ ATOM   54 ------------------------
     Tr[ns( 54)] =   3.00000
     eigenvalues:
       0.500  0.500  0.500
     eigenvectors (columns):
       1.000  0.000  0.000
       0.000  1.000  0.000
       0.000  0.000  1.000
     occupation matrix ns (before diag.):
       0.500  0.000  0.000
       0.000  0.500  0.000
       0.000  0.000  0.500
     ------------------------ ATOM   55 ------------------------
     Tr[ns( 55)] =   3.00000
     eigenvalues:
       0.500  0.500  0.500
     eigenvectors (columns):
       1.000  0.000  0.000
       0.000  1.000  0.000
       0.000  0.000  1.000
     occupation matrix ns (before diag.):
       0.500  0.000  0.000
       0.000  0.500  0.000
       0.000  0.000  0.500
     ------------------------ ATOM   56 ------------------------
     Tr[ns( 56)] =   3.00000
     eigenvalues:
       0.500  0.500  0.500
     eigenvectors (columns):
       1.000  0.000  0.000
       0.000  1.000  0.000
       0.000  0.000  1.000
     occupation matrix ns (before diag.):
       0.500  0.000  0.000
       0.000  0.500  0.000
       0.000  0.000  0.500
     ------------------------ ATOM   57 ------------------------
     Tr[ns( 57)] =   1.00000
     eigenvalues:
       0.167  0.167  0.167
     eigenvectors (columns):
       1.000  0.000  0.000
       0.000  1.000  0.000
       0.000  0.000  1.000
     occupation matrix ns (before diag.):
       0.167  0.000  0.000
       0.000  0.167  0.000
       0.000  0.000  0.167
     ------------------------ ATOM   58 ------------------------
     Tr[ns( 58)] =   1.00000
     eigenvalues:
       0.167  0.167  0.167
     eigenvectors (columns):
       1.000  0.000  0.000
       0.000  1.000  0.000
       0.000  0.000  1.000
     occupation matrix ns (before diag.):
       0.167  0.000  0.000
       0.000  0.167  0.000
       0.000  0.000  0.167
     ------------------------ ATOM   59 ------------------------
     Tr[ns( 59)] =   1.00000
     eigenvalues:
       0.167  0.167  0.167
     eigenvectors (columns):
       1.000  0.000  0.000
       0.000  1.000  0.000
       0.000  0.000  1.000
     occupation matrix ns (before diag.):
       0.167  0.000  0.000
       0.000  0.167  0.000
       0.000  0.000  0.167
     ------------------------ ATOM   60 ------------------------
     Tr[ns( 60)] =   1.00000
     eigenvalues:
       0.167  0.167  0.167
     eigenvectors (columns):
       1.000  0.000  0.000
       0.000  1.000  0.000
       0.000  0.000  1.000
     occupation matrix ns (before diag.):
       0.167  0.000  0.000
       0.000  0.167  0.000
       0.000  0.000  0.167
     ------------------------ ATOM   61 ------------------------
     Tr[ns( 61)] =   3.00000
     eigenvalues:
       0.500  0.500  0.500
     eigenvectors (columns):
       1.000  0.000  0.000
       0.000  1.000  0.000
       0.000  0.000  1.000
     occupation matrix ns (before diag.):
       0.500  0.000  0.000
       0.000  0.500  0.000
       0.000  0.000  0.500
     ------------------------ ATOM   62 ------------------------
     Tr[ns( 62)] =   3.00000
     eigenvalues:
       0.500  0.500  0.500
     eigenvectors (columns):
       1.000  0.000  0.000
       0.000  1.000  0.000
       0.000  0.000  1.000
     occupation matrix ns (before diag.):
       0.500  0.000  0.000
       0.000  0.500  0.000
       0.000  0.000  0.500
     ------------------------ ATOM   63 ------------------------
     Tr[ns( 63)] =   3.00000
     eigenvalues:
       0.500  0.500  0.500
     eigenvectors (columns):
       1.000  0.000  0.000
       0.000  1.000  0.000
       0.000  0.000  1.000
     occupation matrix ns (before diag.):
       0.500  0.000  0.000
       0.000  0.500  0.000
       0.000  0.000  0.500
     ------------------------ ATOM   64 ------------------------
     Tr[ns( 64)] =   3.00000
     eigenvalues:
       0.500  0.500  0.500
     eigenvectors (columns):
       1.000  0.000  0.000
       0.000  1.000  0.000
       0.000  0.000  1.000
     occupation matrix ns (before diag.):
       0.500  0.000  0.000
       0.000  0.500  0.000
       0.000  0.000  0.500
     ------------------------ ATOM   65 ------------------------
     Tr[ns( 65)] =   1.00000
     eigenvalues:
       0.167  0.167  0.167
     eigenvectors (columns):
       1.000  0.000  0.000
       0.000  1.000  0.000
       0.000  0.000  1.000
     occupation matrix ns (before diag.):
       0.167  0.000  0.000
       0.000  0.167  0.000
       0.000  0.000  0.167
     ------------------------ ATOM   66 ------------------------
     Tr[ns( 66)] =   1.00000
     eigenvalues:
       0.167  0.167  0.167
     eigenvectors (columns):
       1.000  0.000  0.000
       0.000  1.000  0.000
       0.000  0.000  1.000
     occupation matrix ns (before diag.):
       0.167  0.000  0.000
       0.000  0.167  0.000
       0.000  0.000  0.167
     ------------------------ ATOM   67 ------------------------
     Tr[ns( 67)] =   1.00000
     eigenvalues:
       0.167  0.167  0.167
     eigenvectors (columns):
       1.000  0.000  0.000
       0.000  1.000  0.000
       0.000  0.000  1.000
     occupation matrix ns (before diag.):
       0.167  0.000  0.000
       0.000  0.167  0.000
       0.000  0.000  0.167
     ------------------------ ATOM   68 ------------------------
     Tr[ns( 68)] =   1.00000
     eigenvalues:
       0.167  0.167  0.167
     eigenvectors (columns):
       1.000  0.000  0.000
       0.000  1.000  0.000
       0.000  0.000  1.000
     occupation matrix ns (before diag.):
       0.167  0.000  0.000
       0.000  0.167  0.000
       0.000  0.000  0.167
     ------------------------ ATOM   69 ------------------------
     Tr[ns( 69)] =   3.00000
     eigenvalues:
       0.500  0.500  0.500
     eigenvectors (columns):
       1.000  0.000  0.000
       0.000  1.000  0.000
       0.000  0.000  1.000
     occupation matrix ns (before diag.):
       0.500  0.000  0.000
       0.000  0.500  0.000
       0.000  0.000  0.500
     ------------------------ ATOM   70 ------------------------
     Tr[ns( 70)] =   3.00000
     eigenvalues:
       0.500  0.500  0.500
     eigenvectors (columns):
       1.000  0.000  0.000
       0.000  1.000  0.000
       0.000  0.000  1.000
     occupation matrix ns (before diag.):
       0.500  0.000  0.000
       0.000  0.500  0.000
       0.000  0.000  0.500
     ------------------------ ATOM   71 ------------------------
     Tr[ns( 71)] =   3.00000
     eigenvalues:
       0.500  0.500  0.500
     eigenvectors (columns):
       1.000  0.000  0.000
       0.000  1.000  0.000
       0.000  0.000  1.000
     occupation matrix ns (before diag.):
       0.500  0.000  0.000
       0.000  0.500  0.000
       0.000  0.000  0.500
     ------------------------ ATOM   72 ------------------------
     Tr[ns( 72)] =   3.00000
     eigenvalues:
       0.500  0.500  0.500
     eigenvectors (columns):
       1.000  0.000  0.000
       0.000  1.000  0.000
       0.000  0.000  1.000
     occupation matrix ns (before diag.):
       0.500  0.000  0.000
       0.000  0.500  0.000
       0.000  0.000  0.500
     ------------------------ ATOM   73 ------------------------
     Tr[ns( 73)] =   1.00000
     eigenvalues:
       0.167  0.167  0.167
     eigenvectors (columns):
       1.000  0.000  0.000
       0.000  1.000  0.000
       0.000  0.000  1.000
     occupation matrix ns (before diag.):
       0.167  0.000  0.000
       0.000  0.167  0.000
       0.000  0.000  0.167
     ------------------------ ATOM   74 ------------------------
     Tr[ns( 74)] =   1.00000
     eigenvalues:
       0.167  0.167  0.167
     eigenvectors (columns):
       1.000  0.000  0.000
       0.000  1.000  0.000
       0.000  0.000  1.000
     occupation matrix ns (before diag.):
       0.167  0.000  0.000
       0.000  0.167  0.000
       0.000  0.000  0.167
     ------------------------ ATOM   75 ------------------------
     Tr[ns( 75)] =   1.00000
     eigenvalues:
       0.167  0.167  0.167
     eigenvectors (columns):
       1.000  0.000  0.000
       0.000  1.000  0.000
       0.000  0.000  1.000
     occupation matrix ns (before diag.):
       0.167  0.000  0.000
       0.000  0.167  0.000
       0.000  0.000  0.167
     ------------------------ ATOM   76 ------------------------
     Tr[ns( 76)] =   1.00000
     eigenvalues:
       0.167  0.167  0.167
     eigenvectors (columns):
       1.000  0.000  0.000
       0.000  1.000  0.000
       0.000  0.000  1.000
     occupation matrix ns (before diag.):
       0.167  0.000  0.000
       0.000  0.167  0.000
       0.000  0.000  0.167
     ------------------------ ATOM   77 ------------------------
     Tr[ns( 77)] =   3.00000
     eigenvalues:
       0.500  0.500  0.500
     eigenvectors (columns):
       1.000  0.000  0.000
       0.000  1.000  0.000
       0.000  0.000  1.000
     occupation matrix ns (before diag.):
       0.500  0.000  0.000
       0.000  0.500  0.000
       0.000  0.000  0.500
     ------------------------ ATOM   78 ------------------------
     Tr[ns( 78)] =   3.00000
     eigenvalues:
       0.500  0.500  0.500
     eigenvectors (columns):
       1.000  0.000  0.000
       0.000  1.000  0.000
       0.000  0.000  1.000
     occupation matrix ns (before diag.):
       0.500  0.000  0.000
       0.000  0.500  0.000
       0.000  0.000  0.500
     ------------------------ ATOM   79 ------------------------
     Tr[ns( 79)] =   3.00000
     eigenvalues:
       0.500  0.500  0.500
     eigenvectors (columns):
       1.000  0.000  0.000
       0.000  1.000  0.000
       0.000  0.000  1.000
     occupation matrix ns (before diag.):
       0.500  0.000  0.000
       0.000  0.500  0.000
       0.000  0.000  0.500
     ------------------------ ATOM   80 ------------------------
     Tr[ns( 80)] =   3.00000
     eigenvalues:
       0.500  0.500  0.500
     eigenvectors (columns):
       1.000  0.000  0.000
       0.000  1.000  0.000
       0.000  0.000  1.000
     occupation matrix ns (before diag.):
       0.500  0.000  0.000
       0.000  0.500  0.000
       0.000  0.000  0.500
     ------------------------ ATOM   81 ------------------------
     Tr[ns( 81)] =   1.00000
     eigenvalues:
       0.167  0.167  0.167
     eigenvectors (columns):
       1.000  0.000  0.000
       0.000  1.000  0.000
       0.000  0.000  1.000
     occupation matrix ns (before diag.):
       0.167  0.000  0.000
       0.000  0.167  0.000
       0.000  0.000  0.167
     ------------------------ ATOM   82 ------------------------
     Tr[ns( 82)] =   1.00000
     eigenvalues:
       0.167  0.167  0.167
     eigenvectors (columns):
       1.000  0.000  0.000
       0.000  1.000  0.000
       0.000  0.000  1.000
     occupation matrix ns (before diag.):
       0.167  0.000  0.000
       0.000  0.167  0.000
       0.000  0.000  0.167
     ------------------------ ATOM   83 ------------------------
     Tr[ns( 83)] =   1.00000
     eigenvalues:
       0.167  0.167  0.167
     eigenvectors (columns):
       1.000  0.000  0.000
       0.000  1.000  0.000
       0.000  0.000  1.000
     occupation matrix ns (before diag.):
       0.167  0.000  0.000
       0.000  0.167  0.000
       0.000  0.000  0.167
     ------------------------ ATOM   84 ------------------------
     Tr[ns( 84)] =   1.00000
     eigenvalues:
       0.167  0.167  0.167
     eigenvectors (columns):
       1.000  0.000  0.000
       0.000  1.000  0.000
       0.000  0.000  1.000
     occupation matrix ns (before diag.):
       0.167  0.000  0.000
       0.000  0.167  0.000
       0.000  0.000  0.167
     ------------------------ ATOM   85 ------------------------
     Tr[ns( 85)] =   3.00000
     eigenvalues:
       0.500  0.500  0.500
     eigenvectors (columns):
       1.000  0.000  0.000
       0.000  1.000  0.000
       0.000  0.000  1.000
     occupation matrix ns (before diag.):
       0.500  0.000  0.000
       0.000  0.500  0.000
       0.000  0.000  0.500
     ------------------------ ATOM   86 ------------------------
     Tr[ns( 86)] =   3.00000
     eigenvalues:
       0.500  0.500  0.500
     eigenvectors (columns):
       1.000  0.000  0.000
       0.000  1.000  0.000
       0.000  0.000  1.000
     occupation matrix ns (before diag.):
       0.500  0.000  0.000
       0.000  0.500  0.000
       0.000  0.000  0.500
     ------------------------ ATOM   87 ------------------------
     Tr[ns( 87)] =   3.00000
     eigenvalues:
       0.500  0.500  0.500
     eigenvectors (columns):
       1.000  0.000  0.000
       0.000  1.000  0.000
       0.000  0.000  1.000
     occupation matrix ns (before diag.):
       0.500  0.000  0.000
       0.000  0.500  0.000
       0.000  0.000  0.500
     ------------------------ ATOM   88 ------------------------
     Tr[ns( 88)] =   3.00000
     eigenvalues:
       0.500  0.500  0.500
     eigenvectors (columns):
       1.000  0.000  0.000
       0.000  1.000  0.000
       0.000  0.000  1.000
     occupation matrix ns (before diag.):
       0.500  0.000  0.000
       0.000  0.500  0.000
       0.000  0.000  0.500
     ------------------------ ATOM   89 ------------------------
     Tr[ns( 89)] =   1.00000
     eigenvalues:
       0.167  0.167  0.167
     eigenvectors (columns):
       1.000  0.000  0.000
       0.000  1.000  0.000
       0.000  0.000  1.000
     occupation matrix ns (before diag.):
       0.167  0.000  0.000
       0.000  0.167  0.000
       0.000  0.000  0.167
     ------------------------ ATOM   90 ------------------------
     Tr[ns( 90)] =   1.00000
     eigenvalues:
       0.167  0.167  0.167
     eigenvectors (columns):
       1.000  0.000  0.000
       0.000  1.000  0.000
       0.000  0.000  1.000
     occupation matrix ns (before diag.):
       0.167  0.000  0.000
       0.000  0.167  0.000
       0.000  0.000  0.167
     ------------------------ ATOM   91 ------------------------
     Tr[ns( 91)] =   1.00000
     eigenvalues:
       0.167  0.167  0.167
     eigenvectors (columns):
       1.000  0.000  0.000
       0.000  1.000  0.000
       0.000  0.000  1.000
     occupation matrix ns (before diag.):
       0.167  0.000  0.000
       0.000  0.167  0.000
       0.000  0.000  0.167
     ------------------------ ATOM   92 ------------------------
     Tr[ns( 92)] =   1.00000
     eigenvalues:
       0.167  0.167  0.167
     eigenvectors (columns):
       1.000  0.000  0.000
       0.000  1.000  0.000
       0.000  0.000  1.000
     occupation matrix ns (before diag.):
       0.167  0.000  0.000
       0.000  0.167  0.000
       0.000  0.000  0.167
     ------------------------ ATOM   93 ------------------------
     Tr[ns( 93)] =   3.00000
     eigenvalues:
       0.500  0.500  0.500
     eigenvectors (columns):
       1.000  0.000  0.000
       0.000  1.000  0.000
       0.000  0.000  1.000
     occupation matrix ns (before diag.):
       0.500  0.000  0.000
       0.000  0.500  0.000
       0.000  0.000  0.500
     ------------------------ ATOM   94 ------------------------
     Tr[ns( 94)] =   3.00000
     eigenvalues:
       0.500  0.500  0.500
     eigenvectors (columns):
       1.000  0.000  0.000
       0.000  1.000  0.000
       0.000  0.000  1.000
     occupation matrix ns (before diag.):
       0.500  0.000  0.000
       0.000  0.500  0.000
       0.000  0.000  0.500
     ------------------------ ATOM   95 ------------------------
     Tr[ns( 95)] =   3.00000
     eigenvalues:
       0.500  0.500  0.500
     eigenvectors (columns):
       1.000  0.000  0.000
       0.000  1.000  0.000
       0.000  0.000  1.000
     occupation matrix ns (before diag.):
       0.500  0.000  0.000
       0.000  0.500  0.000
       0.000  0.000  0.500
     ------------------------ ATOM   96 ------------------------
     Tr[ns( 96)] =   3.00000
     eigenvalues:
       0.500  0.500  0.500
     eigenvectors (columns):
       1.000  0.000  0.000
       0.000  1.000  0.000
       0.000  0.000  1.000
     occupation matrix ns (before diag.):
       0.500  0.000  0.000
       0.000  0.500  0.000
       0.000  0.000  0.500
     ------------------------ ATOM   97 ------------------------
     Tr[ns( 97)] =   1.00000
     eigenvalues:
       0.167  0.167  0.167
     eigenvectors (columns):
       1.000  0.000  0.000
       0.000  1.000  0.000
       0.000  0.000  1.000
     occupation matrix ns (before diag.):
       0.167  0.000  0.000
       0.000  0.167  0.000
       0.000  0.000  0.167
     ------------------------ ATOM   98 ------------------------
     Tr[ns( 98)] =   1.00000
     eigenvalues:
       0.167  0.167  0.167
     eigenvectors (columns):
       1.000  0.000  0.000
       0.000  1.000  0.000
       0.000  0.000  1.000
     occupation matrix ns (before diag.):
       0.167  0.000  0.000
       0.000  0.167  0.000
       0.000  0.000  0.167
     ------------------------ ATOM   99 ------------------------
     Tr[ns( 99)] =   1.00000
     eigenvalues:
       0.167  0.167  0.167
     eigenvectors (columns):
       1.000  0.000  0.000
       0.000  1.000  0.000
       0.000  0.000  1.000
     occupation matrix ns (before diag.):
       0.167  0.000  0.000
       0.000  0.167  0.000
       0.000  0.000  0.167
     ------------------------ ATOM  100 ------------------------
     Tr[ns(100)] =   1.00000
     eigenvalues:
       0.167  0.167  0.167
     eigenvectors (columns):
       1.000  0.000  0.000
       0.000  1.000  0.000
       0.000  0.000  1.000
     occupation matrix ns (before diag.):
       0.167  0.000  0.000
       0.000  0.167  0.000
       0.000  0.000  0.167
     ------------------------ ATOM  101 ------------------------
     Tr[ns(101)] =   3.00000
     eigenvalues:
       0.500  0.500  0.500
     eigenvectors (columns):
       1.000  0.000  0.000
       0.000  1.000  0.000
       0.000  0.000  1.000
     occupation matrix ns (before diag.):
       0.500  0.000  0.000
       0.000  0.500  0.000
       0.000  0.000  0.500
     ------------------------ ATOM  102 ------------------------
     Tr[ns(102)] =   3.00000
     eigenvalues:
       0.500  0.500  0.500
     eigenvectors (columns):
       1.000  0.000  0.000
       0.000  1.000  0.000
       0.000  0.000  1.000
     occupation matrix ns (before diag.):
       0.500  0.000  0.000
       0.000  0.500  0.000
       0.000  0.000  0.500
     ------------------------ ATOM  103 ------------------------
     Tr[ns(103)] =   3.00000
     eigenvalues:
       0.500  0.500  0.500
     eigenvectors (columns):
       1.000  0.000  0.000
       0.000  1.000  0.000
       0.000  0.000  1.000
     occupation matrix ns (before diag.):
       0.500  0.000  0.000
       0.000  0.500  0.000
       0.000  0.000  0.500
     ------------------------ ATOM  104 ------------------------
     Tr[ns(104)] =   3.00000
     eigenvalues:
       0.500  0.500  0.500
     eigenvectors (columns):
       1.000  0.000  0.000
       0.000  1.000  0.000
       0.000  0.000  1.000
     occupation matrix ns (before diag.):
       0.500  0.000  0.000
       0.000  0.500  0.000
       0.000  0.000  0.500
     ------------------------ ATOM  105 ------------------------
     Tr[ns(105)] =   1.00000
     eigenvalues:
       0.167  0.167  0.167
     eigenvectors (columns):
       1.000  0.000  0.000
       0.000  1.000  0.000
       0.000  0.000  1.000
     occupation matrix ns (before diag.):
       0.167  0.000  0.000
       0.000  0.167  0.000
       0.000  0.000  0.167
     ------------------------ ATOM  106 ------------------------
     Tr[ns(106)] =   1.00000
     eigenvalues:
       0.167  0.167  0.167
     eigenvectors (columns):
       1.000  0.000  0.000
       0.000  1.000  0.000
       0.000  0.000  1.000
     occupation matrix ns (before diag.):
       0.167  0.000  0.000
       0.000  0.167  0.000
       0.000  0.000  0.167
     ------------------------ ATOM  107 ------------------------
     Tr[ns(107)] =   1.00000
     eigenvalues:
       0.167  0.167  0.167
     eigenvectors (columns):
       1.000  0.000  0.000
       0.000  1.000  0.000
       0.000  0.000  1.000
     occupation matrix ns (before diag.):
       0.167  0.000  0.000
       0.000  0.167  0.000
       0.000  0.000  0.167
     ------------------------ ATOM  108 ------------------------
     Tr[ns(108)] =   1.00000
     eigenvalues:
       0.167  0.167  0.167
     eigenvectors (columns):
       1.000  0.000  0.000
       0.000  1.000  0.000
       0.000  0.000  1.000
     occupation matrix ns (before diag.):
       0.167  0.000  0.000
       0.000  0.167  0.000
       0.000  0.000  0.167
     ------------------------ ATOM  109 ------------------------
     Tr[ns(109)] =   3.00000
     eigenvalues:
       0.500  0.500  0.500
     eigenvectors (columns):
       1.000  0.000  0.000
       0.000  1.000  0.000
       0.000  0.000  1.000
     occupation matrix ns (before diag.):
       0.500  0.000  0.000
       0.000  0.500  0.000
       0.000  0.000  0.500
     ------------------------ ATOM  110 ------------------------
     Tr[ns(110)] =   3.00000
     eigenvalues:
       0.500  0.500  0.500
     eigenvectors (columns):
       1.000  0.000  0.000
       0.000  1.000  0.000
       0.000  0.000  1.000
     occupation matrix ns (before diag.):
       0.500  0.000  0.000
       0.000  0.500  0.000
       0.000  0.000  0.500
     ------------------------ ATOM  111 ------------------------
     Tr[ns(111)] =   3.00000
     eigenvalues:
       0.500  0.500  0.500
     eigenvectors (columns):
       1.000  0.000  0.000
       0.000  1.000  0.000
       0.000  0.000  1.000
     occupation matrix ns (before diag.):
       0.500  0.000  0.000
       0.000  0.500  0.000
       0.000  0.000  0.500
     ------------------------ ATOM  112 ------------------------
     Tr[ns(112)] =   3.00000
     eigenvalues:
       0.500  0.500  0.500
     eigenvectors (columns):
       1.000  0.000  0.000
       0.000  1.000  0.000
       0.000  0.000  1.000
     occupation matrix ns (before diag.):
       0.500  0.000  0.000
       0.000  0.500  0.000
       0.000  0.000  0.500
     ------------------------ ATOM  113 ------------------------
     Tr[ns(113)] =   1.00000
     eigenvalues:
       0.167  0.167  0.167
     eigenvectors (columns):
       1.000  0.000  0.000
       0.000  1.000  0.000
       0.000  0.000  1.000
     occupation matrix ns (before diag.):
       0.167  0.000  0.000
       0.000  0.167  0.000
       0.000  0.000  0.167
     ------------------------ ATOM  114 ------------------------
     Tr[ns(114)] =   1.00000
     eigenvalues:
       0.167  0.167  0.167
     eigenvectors (columns):
       1.000  0.000  0.000
       0.000  1.000  0.000
       0.000  0.000  1.000
     occupation matrix ns (before diag.):
       0.167  0.000  0.000
       0.000  0.167  0.000
       0.000  0.000  0.167
     ------------------------ ATOM  115 ------------------------
     Tr[ns(115)] =   1.00000
     eigenvalues:
       0.167  0.167  0.167
     eigenvectors (columns):
       1.000  0.000  0.000
       0.000  1.000  0.000
       0.000  0.000  1.000
     occupation matrix ns (before diag.):
       0.167  0.000  0.000
       0.000  0.167  0.000
       0.000  0.000  0.167
     ------------------------ ATOM  116 ------------------------
     Tr[ns(116)] =   1.00000
     eigenvalues:
       0.167  0.167  0.167
     eigenvectors (columns):
       1.000  0.000  0.000
       0.000  1.000  0.000
       0.000  0.000  1.000
     occupation matrix ns (before diag.):
       0.167  0.000  0.000
       0.000  0.167  0.000
       0.000  0.000  0.167
     ------------------------ ATOM  117 ------------------------
     Tr[ns(117)] =   3.00000
     eigenvalues:
       0.500  0.500  0.500
     eigenvectors (columns):
       1.000  0.000  0.000
       0.000  1.000  0.000
       0.000  0.000  1.000
     occupation matrix ns (before diag.):
       0.500  0.000  0.000
       0.000  0.500  0.000
       0.000  0.000  0.500
     ------------------------ ATOM  118 ------------------------
     Tr[ns(118)] =   3.00000
     eigenvalues:
       0.500  0.500  0.500
     eigenvectors (columns):
       1.000  0.000  0.000
       0.000  1.000  0.000
       0.000  0.000  1.000
     occupation matrix ns (before diag.):
       0.500  0.000  0.000
       0.000  0.500  0.000
       0.000  0.000  0.500
     ------------------------ ATOM  119 ------------------------
     Tr[ns(119)] =   3.00000
     eigenvalues:
       0.500  0.500  0.500
     eigenvectors (columns):
       1.000  0.000  0.000
       0.000  1.000  0.000
       0.000  0.000  1.000
     occupation matrix ns (before diag.):
       0.500  0.000  0.000
       0.000  0.500  0.000
       0.000  0.000  0.500
     ------------------------ ATOM  120 ------------------------
     Tr[ns(120)] =   3.00000
     eigenvalues:
       0.500  0.500  0.500
     eigenvectors (columns):
       1.000  0.000  0.000
       0.000  1.000  0.000
       0.000  0.000  1.000
     occupation matrix ns (before diag.):
       0.500  0.000  0.000
       0.000  0.500  0.000
       0.000  0.000  0.500
     ------------------------ ATOM  121 ------------------------
     Tr[ns(121)] =   1.00000
     eigenvalues:
       0.167  0.167  0.167
     eigenvectors (columns):
       1.000  0.000  0.000
       0.000  1.000  0.000
       0.000  0.000  1.000
     occupation matrix ns (before diag.):
       0.167  0.000  0.000
       0.000  0.167  0.000
       0.000  0.000  0.167
     ------------------------ ATOM  122 ------------------------
     Tr[ns(122)] =   1.00000
     eigenvalues:
       0.167  0.167  0.167
     eigenvectors (columns):
       1.000  0.000  0.000
       0.000  1.000  0.000
       0.000  0.000  1.000
     occupation matrix ns (before diag.):
       0.167  0.000  0.000
       0.000  0.167  0.000
       0.000  0.000  0.167
     ------------------------ ATOM  123 ------------------------
     Tr[ns(123)] =   1.00000
     eigenvalues:
       0.167  0.167  0.167
     eigenvectors (columns):
       1.000  0.000  0.000
       0.000  1.000  0.000
       0.000  0.000  1.000
     occupation matrix ns (before diag.):
       0.167  0.000  0.000
       0.000  0.167  0.000
       0.000  0.000  0.167
     ------------------------ ATOM  124 ------------------------
     Tr[ns(124)] =   1.00000
     eigenvalues:
       0.167  0.167  0.167
     eigenvectors (columns):
       1.000  0.000  0.000
       0.000  1.000  0.000
       0.000  0.000  1.000
     occupation matrix ns (before diag.):
       0.167  0.000  0.000
       0.000  0.167  0.000
       0.000  0.000  0.167
     ------------------------ ATOM  125 ------------------------
     Tr[ns(125)] =   3.00000
     eigenvalues:
       0.500  0.500  0.500
     eigenvectors (columns):
       1.000  0.000  0.000
       0.000  1.000  0.000
       0.000  0.000  1.000
     occupation matrix ns (before diag.):
       0.500  0.000  0.000
       0.000  0.500  0.000
       0.000  0.000  0.500
     ------------------------ ATOM  126 ------------------------
     Tr[ns(126)] =   3.00000
     eigenvalues:
       0.500  0.500  0.500
     eigenvectors (columns):
       1.000  0.000  0.000
       0.000  1.000  0.000
       0.000  0.000  1.000
     occupation matrix ns (before diag.):
       0.500  0.000  0.000
       0.000  0.500  0.000
       0.000  0.000  0.500
     ------------------------ ATOM  127 ------------------------
     Tr[ns(127)] =   3.00000
     eigenvalues:
       0.500  0.500  0.500
     eigenvectors (columns):
       1.000  0.000  0.000
       0.000  1.000  0.000
       0.000  0.000  1.000
     occupation matrix ns (before diag.):
       0.500  0.000  0.000
       0.000  0.500  0.000
       0.000  0.000  0.500
     ------------------------ ATOM  128 ------------------------
     Tr[ns(128)] =   3.00000
     eigenvalues:
       0.500  0.500  0.500
     eigenvectors (columns):
       1.000  0.000  0.000
       0.000  1.000  0.000
       0.000  0.000  1.000
     occupation matrix ns (before diag.):
       0.500  0.000  0.000
       0.000  0.500  0.000
       0.000  0.000  0.500
     ------------------------ ATOM  129 ------------------------
     Tr[ns(129)] =   1.00000
     eigenvalues:
       0.167  0.167  0.167
     eigenvectors (columns):
       1.000  0.000  0.000
       0.000  1.000  0.000
       0.000  0.000  1.000
     occupation matrix ns (before diag.):
       0.167  0.000  0.000
       0.000  0.167  0.000
       0.000  0.000  0.167
     ------------------------ ATOM  130 ------------------------
     Tr[ns(130)] =   1.00000
     eigenvalues:
       0.167  0.167  0.167
     eigenvectors (columns):
       1.000  0.000  0.000
       0.000  1.000  0.000
       0.000  0.000  1.000
     occupation matrix ns (before diag.):
       0.167  0.000  0.000
       0.000  0.167  0.000
       0.000  0.000  0.167
     ------------------------ ATOM  131 ------------------------
     Tr[ns(131)] =   1.00000
     eigenvalues:
       0.167  0.167  0.167
     eigenvectors (columns):
       1.000  0.000  0.000
       0.000  1.000  0.000
       0.000  0.000  1.000
     occupation matrix ns (before diag.):
       0.167  0.000  0.000
       0.000  0.167  0.000
       0.000  0.000  0.167
     ------------------------ ATOM  132 ------------------------
     Tr[ns(132)] =   1.00000
     eigenvalues:
       0.167  0.167  0.167
     eigenvectors (columns):
       1.000  0.000  0.000
       0.000  1.000  0.000
       0.000  0.000  1.000
     occupation matrix ns (before diag.):
       0.167  0.000  0.000
       0.000  0.167  0.000
       0.000  0.000  0.167
     ------------------------ ATOM  133 ------------------------
     Tr[ns(133)] =   3.00000
     eigenvalues:
       0.500  0.500  0.500
     eigenvectors (columns):
       1.000  0.000  0.000
       0.000  1.000  0.000
       0.000  0.000  1.000
     occupation matrix ns (before diag.):
       0.500  0.000  0.000
       0.000  0.500  0.000
       0.000  0.000  0.500
     ------------------------ ATOM  134 ------------------------
     Tr[ns(134)] =   3.00000
     eigenvalues:
       0.500  0.500  0.500
     eigenvectors (columns):
       1.000  0.000  0.000
       0.000  1.000  0.000
       0.000  0.000  1.000
     occupation matrix ns (before diag.):
       0.500  0.000  0.000
       0.000  0.500  0.000
       0.000  0.000  0.500
     ------------------------ ATOM  135 ------------------------
     Tr[ns(135)] =   3.00000
     eigenvalues:
       0.500  0.500  0.500
     eigenvectors (columns):
       1.000  0.000  0.000
       0.000  1.000  0.000
       0.000  0.000  1.000
     occupation matrix ns (before diag.):
       0.500  0.000  0.000
       0.000  0.500  0.000
       0.000  0.000  0.500
     ------------------------ ATOM  136 ------------------------
     Tr[ns(136)] =   3.00000
     eigenvalues:
       0.500  0.500  0.500
     eigenvectors (columns):
       1.000  0.000  0.000
       0.000  1.000  0.000
       0.000  0.000  1.000
     occupation matrix ns (before diag.):
       0.500  0.000  0.000
       0.000  0.500  0.000
       0.000  0.000  0.500
     ------------------------ ATOM  137 ------------------------
     Tr[ns(137)] =   1.00000
     eigenvalues:
       0.167  0.167  0.167
     eigenvectors (columns):
       1.000  0.000  0.000
       0.000  1.000  0.000
       0.000  0.000  1.000
     occupation matrix ns (before diag.):
       0.167  0.000  0.000
       0.000  0.167  0.000
       0.000  0.000  0.167
     ------------------------ ATOM  138 ------------------------
     Tr[ns(138)] =   1.00000
     eigenvalues:
       0.167  0.167  0.167
     eigenvectors (columns):
       1.000  0.000  0.000
       0.000  1.000  0.000
       0.000  0.000  1.000
     occupation matrix ns (before diag.):
       0.167  0.000  0.000
       0.000  0.167  0.000
       0.000  0.000  0.167
     ------------------------ ATOM  139 ------------------------
     Tr[ns(139)] =   1.00000
     eigenvalues:
       0.167  0.167  0.167
     eigenvectors (columns):
       1.000  0.000  0.000
       0.000  1.000  0.000
       0.000  0.000  1.000
     occupation matrix ns (before diag.):
       0.167  0.000  0.000
       0.000  0.167  0.000
       0.000  0.000  0.167
     ------------------------ ATOM  140 ------------------------
     Tr[ns(140)] =   1.00000
     eigenvalues:
       0.167  0.167  0.167
     eigenvectors (columns):
       1.000  0.000  0.000
       0.000  1.000  0.000
       0.000  0.000  1.000
     occupation matrix ns (before diag.):
       0.167  0.000  0.000
       0.000  0.167  0.000
       0.000  0.000  0.167
     ------------------------ ATOM  141 ------------------------
     Tr[ns(141)] =   3.00000
     eigenvalues:
       0.500  0.500  0.500
     eigenvectors (columns):
       1.000  0.000  0.000
       0.000  1.000  0.000
       0.000  0.000  1.000
     occupation matrix ns (before diag.):
       0.500  0.000  0.000
       0.000  0.500  0.000
       0.000  0.000  0.500
     ------------------------ ATOM  142 ------------------------
     Tr[ns(142)] =   3.00000
     eigenvalues:
       0.500  0.500  0.500
     eigenvectors (columns):
       1.000  0.000  0.000
       0.000  1.000  0.000
       0.000  0.000  1.000
     occupation matrix ns (before diag.):
       0.500  0.000  0.000
       0.000  0.500  0.000
       0.000  0.000  0.500
     ------------------------ ATOM  143 ------------------------
     Tr[ns(143)] =   3.00000
     eigenvalues:
       0.500  0.500  0.500
     eigenvectors (columns):
       1.000  0.000  0.000
       0.000  1.000  0.000
       0.000  0.000  1.000
     occupation matrix ns (before diag.):
       0.500  0.000  0.000
       0.000  0.500  0.000
       0.000  0.000  0.500
     ------------------------ ATOM  144 ------------------------
     Tr[ns(144)] =   3.00000
     eigenvalues:
       0.500  0.500  0.500
     eigenvectors (columns):
       1.000  0.000  0.000
       0.000  1.000  0.000
       0.000  0.000  1.000
     occupation matrix ns (before diag.):
       0.500  0.000  0.000
       0.000  0.500  0.000
       0.000  0.000  0.500
     ------------------------ ATOM  145 ------------------------
     Tr[ns(145)] =   1.00000
     eigenvalues:
       0.167  0.167  0.167
     eigenvectors (columns):
       1.000  0.000  0.000
       0.000  1.000  0.000
       0.000  0.000  1.000
     occupation matrix ns (before diag.):
       0.167  0.000  0.000
       0.000  0.167  0.000
       0.000  0.000  0.167
     ------------------------ ATOM  146 ------------------------
     Tr[ns(146)] =   1.00000
     eigenvalues:
       0.167  0.167  0.167
     eigenvectors (columns):
       1.000  0.000  0.000
       0.000  1.000  0.000
       0.000  0.000  1.000
     occupation matrix ns (before diag.):
       0.167  0.000  0.000
       0.000  0.167  0.000
       0.000  0.000  0.167
     ------------------------ ATOM  147 ------------------------
     Tr[ns(147)] =   1.00000
     eigenvalues:
       0.167  0.167  0.167
     eigenvectors (columns):
       1.000  0.000  0.000
       0.000  1.000  0.000
       0.000  0.000  1.000
     occupation matrix ns (before diag.):
       0.167  0.000  0.000
       0.000  0.167  0.000
       0.000  0.000  0.167
     ------------------------ ATOM  148 ------------------------
     Tr[ns(148)] =   1.00000
     eigenvalues:
       0.167  0.167  0.167
     eigenvectors (columns):
       1.000  0.000  0.000
       0.000  1.000  0.000
       0.000  0.000  1.000
     occupation matrix ns (before diag.):
       0.167  0.000  0.000
       0.000  0.167  0.000
       0.000  0.000  0.167
     ------------------------ ATOM  149 ------------------------
     Tr[ns(149)] =   3.00000
     eigenvalues:
       0.500  0.500  0.500
     eigenvectors (columns):
       1.000  0.000  0.000
       0.000  1.000  0.000
       0.000  0.000  1.000
     occupation matrix ns (before diag.):
       0.500  0.000  0.000
       0.000  0.500  0.000
       0.000  0.000  0.500
     ------------------------ ATOM  150 ------------------------
     Tr[ns(150)] =   3.00000
     eigenvalues:
       0.500  0.500  0.500
     eigenvectors (columns):
       1.000  0.000  0.000
       0.000  1.000  0.000
       0.000  0.000  1.000
     occupation matrix ns (before diag.):
       0.500  0.000  0.000
       0.000  0.500  0.000
       0.000  0.000  0.500
     ------------------------ ATOM  151 ------------------------
     Tr[ns(151)] =   3.00000
     eigenvalues:
       0.500  0.500  0.500
     eigenvectors (columns):
       1.000  0.000  0.000
       0.000  1.000  0.000
       0.000  0.000  1.000
     occupation matrix ns (before diag.):
       0.500  0.000  0.000
       0.000  0.500  0.000
       0.000  0.000  0.500
     ------------------------ ATOM  152 ------------------------
[...]
   -20.6050 -20.6049 -20.6049 -20.6047 -20.6047 -20.6046 -20.6045 -20.6044
   -20.6044 -20.6043 -20.6041 -20.6040 -20.6038 -20.6037 -20.6036 -20.6036
   -20.6034 -20.6033 -20.6032 -20.6032 -20.6031 -20.6029 -20.6027 -20.6026
   -20.6026 -20.6025 -20.6025 -20.6018 -20.6018 -20.6017 -20.6017 -20.6017
   -20.6017 -20.6016 -20.6015 -20.6014 -20.6012 -20.6011 -20.6011 -20.6010
   -20.6010 -20.6009 -20.6008 -20.6007 -20.6006 -20.6005 -20.6003 -20.6002
   -20.6000 -20.5999 -20.5998 -20.5997 -20.5995 -20.5995 -20.5993 -20.5992
   -20.5990 -20.5989 -20.5989 -20.5989 -20.5989 -20.5988 -20.5986 -20.5983
   -20.5982 -20.5981 -20.5980 -20.5979 -20.5979 -20.5979 -20.5979 -20.5977
   -20.5977 -20.5977 -20.5973 -20.5973 -20.5971 -20.5970 -20.5970 -20.5969
   -20.5969 -20.5968 -20.5965 -20.5965 -20.5962 -20.5960 -20.5957 -20.5956
   -20.5955 -20.5954 -20.5953 -20.5953 -20.5951 -20.5950 -20.5948 -20.5947
   -20.5947 -20.5946 -20.5945 -20.5945 -20.5944 -20.5944 -20.5942 -20.5942
   -20.5941 -20.5939 -20.5939 -20.5939 -20.5938 -20.5937 -20.5936 -20.5934
   -20.5934 -20.5932 -20.5931 -20.5927 -20.5926 -20.5925 -20.5921 -20.5921
   -20.5919 -20.5918 -20.5918 -20.5917 -20.5914 -20.5913 -20.5911 -20.5908
   -20.5907 -20.5906 -20.5905 -20.5901 -20.5900 -20.5898 -20.5896 -20.5893
   -20.5892 -20.5891 -20.5890 -20.5890 -20.5889 -20.5888 -20.5888 -20.5885
   -20.5880 -20.5879 -20.5874 -20.5872 -20.5869 -20.5868 -20.5868 -20.5868
   -20.5865 -20.5865 -20.5863 -20.5861 -20.5860 -20.5858 -20.5855 -20.5854
   -20.5853 -20.5851 -20.5850 -20.5850 -20.5845 -20.5844 -20.5841 -20.5839
   -20.5837 -20.5835 -20.5834 -20.5832 -20.5827 -20.5823 -20.5821 -20.5819
   -20.5819 -20.5818 -20.5814 -20.5809 -20.5804 -20.5802 -20.5800 -20.5794
   -20.5792 -20.5790 -20.5789 -20.5785 -20.5782 -20.5776 -20.5769 -20.5758
   -20.5756 -20.5754 -20.5749 -20.5747 -20.5734 -20.5720 -20.5714 -20.5703
   -20.5695 -20.5690 -20.5685 -20.5643  -7.5491  -7.5450  -7.5401  -7.5320
    -7.5290  -7.5289  -7.5284  -7.5266  -7.5255  -7.5238  -7.5224  -7.5205
    -7.5198  -7.5189  -7.5182  -7.5168  -7.5144  -7.5127  -7.5111  -7.5095
    -7.5092  -7.5088  -7.5075  -7.5053  -7.5045  -7.4947  -7.4900  -7.4889
    -7.4887  -7.4827  -7.4811  -7.4786  -7.4777  -7.4772  -7.4764  -7.4739
    -7.4727  -7.4722  -7.4714  -7.4709  -7.4704  -7.4697  -7.4690  -7.4686
    -7.4679  -7.4671  -7.4665  -7.4662  -7.4655  -7.4654  -7.4648  -7.4642
    -7.4639  -7.4637  -7.4624  -7.4619  -7.4609  -7.4601  -7.4597  -7.4593
    -7.4587  -7.4578  -7.4574  -7.4572  -7.4571  -7.4568  -7.4568  -7.4554
    -7.4546  -7.4539  -7.4535  -7.4534  -7.4529  -7.4526  -7.4518  -7.4510
    -7.4508  -7.4504  -7.4500  -7.4495  -7.4486  -7.4482  -7.4481  -7.4475
    -7.4469  -7.4466  -7.4462  -7.4460  -7.4456  -7.4449  -7.4443  -7.4440
    -7.4432  -7.4431  -7.4425  -7.4423  -7.4423  -7.4416  -7.4411  -7.4409
    -7.4409  -7.4403  -7.4396  -7.4388  -7.4382  -7.4381  -7.4374  -7.4373
    -7.4368  -7.4361  -7.4354  -7.4350  -7.4340  -7.4339  -7.4333  -7.4326
    -7.4325  -7.4314  -7.4314  -7.4311  -7.4307  -7.4302  -7.4299  -7.4293
    -7.4292  -7.4285  -7.4284  -7.4279  -7.4272  -7.4265  -7.4264  -7.4262
    -7.4257  -7.4252  -7.4248  -7.4245  -7.4238  -7.4234  -7.4230  -7.4227
    -7.4223  -7.4220  -7.4216  -7.4213  -7.4208  -7.4205  -7.4201  -7.4199
    -7.4196  -7.4192  -7.4190  -7.4185  -7.4183  -7.4180  -7.4178  -7.4173
    -7.4170  -7.4162  -7.4160  -7.4156  -7.4155  -7.4151  -7.4146  -7.4137
    -7.4134  -7.4130  -7.4124  -7.4122  -7.4112  -7.4111  -7.4105  -7.4102
    -7.4099  -7.4096  -7.4094  -7.4089  -7.4087  -7.4078  -7.4075  -7.4074
    -7.4069  -7.4068  -7.4062  -7.4060  -7.4057  -7.4054  -7.4050  -7.4047
    -7.4041  -7.4039  -7.4037  -7.4033  -7.4027  -7.4023  -7.4019  -7.4017
    -7.4015  -7.4011  -7.4009  -7.4007  -7.4004  -7.4000  -7.4000  -7.3994
    -7.3992  -7.3988  -7.3984  -7.3982  -7.3980  -7.3977  -7.3974  -7.3971
    -7.3968  -7.3964  -7.3958  -7.3955  -7.3951  -7.3949  -7.3946  -7.3946
    -7.3943  -7.3935  -7.3927  -7.3926  -7.3922  -7.3917  -7.3915  -7.3910
    -7.3908  -7.3904  -7.3898  -7.3897  -7.3892  -7.3891  -7.3886  -7.3881
    -7.3878  -7.3876  -7.3873  -7.3866  -7.3866  -7.3862  -7.3861  -7.3855
    -7.3855  -7.3854  -7.3852  -7.3849  -7.3848  -7.3846  -7.3838  -7.3835
    -7.3831  -7.3829  -7.3826  -7.3825  -7.3821  -7.3819  -7.3816  -7.3811
    -7.3806  -7.3806  -7.3802  -7.3800  -7.3795  -7.3794  -7.3792  -7.3790
    -7.3787  -7.3785  -7.3781  -7.3780  -7.3776  -7.3771  -7.3769  -7.3766
    -7.3765  -7.3762  -7.3759  -7.3757  -7.3753  -7.3749  -7.3748  -7.3742
    -7.3742  -7.3739  -7.3736  -7.3733  -7.3728  -7.3728  -7.3724  -7.3720
    -7.3716  -7.3712  -7.3711  -7.3708  -7.3705  -7.3700  -7.3697  -7.3694
    -7.3693  -7.3691  -7.3688  -7.3685  -7.3680  -7.3680  -7.3677  -7.3676
    -7.3672  -7.3668  -7.3666  -7.3662  -7.3658  -7.3657  -7.3655  -7.3653
    -7.3650  -7.3648  -7.3645  -7.3641  -7.3638  -7.3635  -7.3633  -7.3630
    -7.3627  -7.3622  -7.3620  -7.3617  -7.3615  -7.3615  -7.3607  -7.3606
    -7.3602  -7.3600  -7.3598  -7.3594  -7.3591  -7.3587  -7.3584  -7.3581
    -7.3579  -7.3576  -7.3574  -7.3570  -7.3567  -7.3565  -7.3561  -7.3556
    -7.3552  -7.3549  -7.3547  -7.3540  -7.3539  -7.3538  -7.3534  -7.3532
    -7.3522  -7.3518  -7.3517  -7.3516  -7.3509  -7.3506  -7.3505  -7.3499
    -7.3497  -7.3495  -7.3490  -7.3488  -7.3484  -7.3481  -7.3481  -7.3474
    -7.3473  -7.3472  -7.3468  -7.3462  -7.3458  -7.3455  -7.3454  -7.3450
    -7.3448  -7.3445  -7.3441  -7.3436  -7.3432  -7.3429  -7.3427  -7.3424
    -7.3421  -7.3420  -7.3414  -7.3411  -7.3406  -7.3403  -7.3400  -7.3395
    -7.3390  -7.3386  -7.3383  -7.3379  -7.3375  -7.3372  -7.3362  -7.3357
    -7.3356  -7.3355  -7.3349  -7.3344  -7.3344  -7.3341  -7.3340  -7.3336
    -7.3333  -7.3332  -7.3325  -7.3319  -7.3317  -7.3315  -7.3313  -7.3312
    -7.3306  -7.3305  -7.3300  -7.3298  -7.3296  -7.3287  -7.3284  -7.3284
    -7.3278  -7.3274  -7.3270  -7.3269  -7.3264  -7.3260  -7.3251  -7.3247
    -7.3243  -7.3242  -7.3240  -7.3236  -7.3230  -7.3226  -7.3225  -7.3221
    -7.3215  -7.3210  -7.3208  -7.3205  -7.3195  -7.3194  -7.3191  -7.3190
    -7.3185  -7.3177  -7.3175  -7.3173  -7.3169  -7.3162  -7.3158  -7.3153
    -7.3146  -7.3145  -7.3141  -7.3135  -7.3134  -7.3132  -7.3125  -7.3122
    -7.3118  -7.3112  -7.3106  -7.3104  -7.3098  -7.3095  -7.3087  -7.3086
    -7.3081  -7.3080  -7.3074  -7.3072  -7.3066  -7.3061  -7.3059  -7.3055
    -7.3054  -7.3052  -7.3045  -7.3044  -7.3042  -7.3040  -7.3037  -7.3037
    -7.3035  -7.3032  -7.3029  -7.3023  -7.3018  -7.3015  -7.3013  -7.3012
    -7.3009  -7.3003  -7.3003  -7.2998  -7.2993  -7.2988  -7.2986  -7.2966
    -7.2962  -7.2958  -7.2947  -7.2945  -7.2943  -7.2936  -7.2930  -7.2926
    -7.2922  -7.2915  -7.2906  -7.2897  -7.2881  -7.2879  -7.2871  -7.2869
    -7.2869  -7.2859  -7.2843  -7.2841  -7.2819  -7.2808  -7.2795  -7.2785
    -7.2723  -7.2710  -7.2709  -7.2704  -7.2699  -7.2691  -7.2683  -7.2674
    -3.5355  -3.4102  -3.3796  -3.3566  -3.3378  -3.3171  -3.2390  -3.1760
    -3.1552  -3.1340  -3.0941  -3.0247  -3.0180  -2.9681  -2.9463  -2.9298
    -2.8901  -2.8836  -2.8510  -2.7851  -2.7583  -2.7238  -2.7036  -2.6849
    -2.6795  -2.6466  -2.5834  -2.5641  -2.5025  -2.4169  -2.4100  -2.3463
    -2.3257  -2.2818  -2.2427  -2.2306  -2.2013  -2.1634  -2.1524  -2.1363
    -2.1087  -2.0626  -2.0463  -2.0283  -2.0009  -1.9941  -1.9448  -1.9258
    -1.9158  -1.8902  -1.8609  -1.8565  -1.8187  -1.7947  -1.7810  -1.7689
    -1.7461  -1.7393  -1.7099  -1.6824  -1.6551  -1.6247  -1.6134  -1.6012
    -1.5830  -1.5534  -1.5433  -1.5181  -1.5104  -1.4633  -1.4583  -1.4451
    -1.4252  -1.3987  -1.3919  -1.3698  -1.3572  -1.3397  -1.3170  -1.3074
    -1.2829  -1.2707  -1.2567  -1.2495  -1.2303  -1.2289  -1.1940  -1.1770
    -1.1716  -1.1647  -1.1546  -1.1289  -1.1258  -1.1142  -1.1134  -1.0993
    -1.0809  -1.0744  -1.0522  -1.0186  -1.0099  -0.9894  -0.9708  -0.9592
    -0.9158  -0.8805  -0.8325  -0.8117   0.3742   0.4206   0.4427   0.4445
     0.6766   0.6881   0.7046   0.7074   0.7169   0.7212   0.7265   0.7307
     0.7380   0.7475   0.7518   0.7563   0.7662   0.7693   0.7756   0.7788
     0.7836   0.7893   0.7947   0.8030   0.8064   0.8106   0.8189   0.8268
     0.8325   0.8367   0.8430   0.8509   0.8572   0.8580   0.8652   0.8727
     0.8839   0.8869   0.8896   0.8915   0.9029   0.9149   0.9250   0.9336
     0.9380   0.9510   0.9534   0.9557   0.9674   0.9717   0.9776   0.9808
     0.9832   0.9911   0.9959   1.0029   1.0085   1.0124   1.0258   1.0293
     1.5119   1.5608   1.5924   1.6275   1.6664   1.6698   1.6798   1.7060
     1.7315   1.7416   1.7489   1.7572   1.8250   1.8367   1.8598   1.8764
     1.8959   1.9208   1.9227   1.9352   1.9435   1.9633   1.9775   1.9795
     1.9874   1.9912   2.0016   2.0133   2.7515   2.7796   2.8350   2.8429
     2.9022   2.9157   2.9285   2.9560   3.3413   3.3565   3.3587   3.3763
     3.4076   3.4167   3.4178   3.4298   3.4376   3.4553   3.4715   3.4900
     3.4961   3.5108   3.5155   3.5345   3.6005   3.6046   3.6171   3.6201
     3.6316   3.6455   3.6489   3.6563   3.6624   3.6705   3.6772   3.6926
     3.6992   3.7082   3.7116   3.7356   3.7650   3.7840   3.7857   3.7963
     3.8422   3.8559   3.8655   3.8685   3.8804   3.8884   3.8972   3.9031
     3.9076   3.9090   3.9205   3.9290   3.9349   3.9444   3.9539   3.9589
     3.9651   3.9710   3.9802   3.9914   4.2254   4.2540   4.2610   4.2954
     4.3158   4.3202   4.3447   4.3582   4.3661   4.3996   4.4176   4.4224
     4.4348   4.4412   4.4478   4.4543   4.4603   4.4665   4.4810   4.4922
     4.4938   4.5050   4.5089   4.5264   4.5392   4.5408   4.5470   4.5527
     4.5653   4.5833   4.5928   4.5965   4.6103   4.6346   4.6485   4.6595
     4.6704   4.6985   4.7059   4.7192   4.7333   4.7510   4.7599   4.7680
     4.7764   4.7873   4.8010   4.8292   4.8306   4.8329   4.8544   4.8606
     4.8713   4.8824   4.8851   4.8885   4.8944   4.8983   4.9038   4.9247
     4.9398   4.9447   4.9527   4.9605   4.9630   4.9753   4.9802   4.9921
     5.0006   5.0136   5.0198   5.0309   5.0427   5.0581   5.0606   5.0658
     5.0855   5.0863   5.0991   5.1172   5.1208   5.1321   5.1428   5.1619
     5.1657   5.1709   5.1814   5.1993   5.2142   5.2370   5.2441   5.2572
     5.2757   5.2992   5.3082   5.3189   5.3306   5.3378   5.3404   5.3561
     5.3749   5.3770   5.3911   5.4000   5.4130   5.4170   5.4260   5.4334
     5.4429   5.4458   5.4482   5.4669   5.5714   5.5851   5.6006   5.6135
     5.6247   5.6462   5.6599   5.6945   5.7216   5.7403   5.7435   5.7496
     5.7744   5.7937   5.8048   5.8127   5.8175   5.8263   5.8465   5.8632
     5.8655   5.8810   5.8904   5.8998   5.9122   5.9247   5.9325   5.9399
     5.9506   5.9540   5.9629   5.9664   5.9711   5.9767   5.9893   6.0004
     6.0626   6.0723   6.0877   6.1120   6.1189   6.1305   6.1562   6.1631
     6.1701   6.1862   6.2073   6.2229   6.2303   6.2351   6.2458   6.2631
     6.3078   6.3759   6.4147   6.4349   6.7617   6.8001   6.8207   6.9031
     8.2300   8.3044   8.3383   8.3474   8.4086   8.4234   8.4657   8.4689
     8.4982   8.5248   8.5292   8.5489   8.6847   8.6927   8.7403   8.7874
     8.8141   8.8278   8.8365   8.8762   8.9353   8.9803   8.9882   8.9981
     9.0126   9.0190   9.0327   9.0407   9.0488   9.0661   9.0800   9.0896
     9.0964   9.1156   9.1164   9.1237   9.1260   9.1542   9.1597   9.1604
     9.1673   9.1829   9.1889   9.1985   9.2042   9.2064   9.2226   9.2261
     9.2360   9.2535   9.2624   9.2650   9.2815   9.2853   9.2942   9.3018
     9.3278   9.3529   9.3595   9.3724   9.3805   9.3951   9.4026   9.4072
     9.4319   9.4404   9.4559   9.4691   9.4808   9.4872   9.4984   9.5022
     9.5081   9.5155   9.5231   9.5290   9.5342   9.5422   9.5468   9.5574
     9.5649   9.5711   9.5764   9.5822   9.5881   9.5964   9.6040   9.6086
     9.6105   9.6201   9.6270   9.6323   9.6470   9.6480   9.6624   9.6663
     9.6716   9.6785   9.6848   9.6936   9.6983   9.7038   9.7185   9.7227
     9.7419   9.7456   9.7624   9.7746  10.0813  10.0971  10.1086  10.1351
    10.1417  10.1576  10.1949  10.2013  10.2115  10.2203  10.2499  10.2728
    10.3286  10.3389  10.3505  10.3653  10.3820  10.4035  10.4135  10.4313
    10.4462  10.4577  10.4658  10.4724  10.4933  10.5097  10.5339  10.5534
    10.6495  10.6711  10.6749  10.6860  10.6968  10.7192  10.7256  10.7388
    10.7573  10.7716  10.7814  10.7895  10.8136  10.8379  10.8515  10.8554
    10.9716  10.9815  10.9866  10.9982  11.0096  11.0192  11.0263  11.0315
    11.0353  11.0526  11.0578  11.0690  11.0817  11.0864  11.0972  11.1004
    11.1333  11.1428  11.1576  11.1682  11.1838  11.1885  11.1934  11.2033
    11.2098  11.2195  11.2286  11.2329  11.2438  11.2458  11.2516  11.2585
    11.2609  11.2709  11.2791  11.2857  11.2864  11.3056  11.3106  11.3144
    11.3234  11.3265  11.3367  11.3432  11.3472  11.3501  11.3651  11.3713
    11.3735  11.3827  11.3865  11.3971  11.4012  11.4079  11.4124  11.4301
    11.4439  11.4571  11.4694  11.4954  11.5820  11.5962  11.6069  11.6143
    11.6175  11.6275  11.6386  11.6462  11.6501  11.6628  11.6954  11.7060
    11.7177  11.7232  11.7264  11.7353  11.7533  11.7619  11.7824  11.7837
    11.7929  11.8063  11.8092  11.8142  11.8254  11.8527  11.8621  11.8662
    11.8805  11.8952  11.8976  11.9062  11.9330  11.9480  11.9701  11.9768
    11.9861  12.0106  12.0253  12.0339  12.0442  12.0568  12.0655  12.0706
    12.0775  12.0875  12.0935  12.1038  12.1097  12.1188  12.1227  12.1302
    12.1455  12.1524  12.1557  12.1663  12.1748  12.1857  12.1915  12.1938
    12.2016  12.2114  12.2174  12.2196  12.2596  12.2827  12.3004  12.3162
    12.3312  12.3549  12.3664  12.3741  12.3888  12.3953  12.4063  12.4201
    12.4434  12.4528  12.4714  12.4734  12.4869  12.4954  12.5048  12.5224
    12.5271  12.5348  12.5509  12.5563  12.5634  12.5703  12.5730  12.5794
    12.5833  12.5901  12.5961  12.6138  12.6183  12.6249  12.6287  12.6368
    12.6388  12.6487  12.6587  12.6644  12.6716  12.6760  12.6862  12.6896
    12.6938  12.7069  12.7117  12.7248  12.7280  12.7373  12.7395  12.7542
    12.7642  12.7690  12.7715  12.7815  12.7872  12.7927  12.8084  12.8153
    12.8264  12.8332  12.8352  12.8454  12.8493  12.8523  12.8673  12.8756
    12.8831  12.8934  12.9075  12.9351  12.9485  12.9580  12.9639  12.9711
    13.2779  13.3024  13.3137  13.3327  13.3532  13.3603  13.3631  13.3775
    13.4013  13.4092  13.4445  13.4492  13.4828  13.4915  13.5329  13.5485
    13.5613  13.5774  13.5900  13.6060  13.6179  13.6294  13.6418  13.6521
    13.6614  13.6633  13.6658  13.6929  13.6995  13.7237  13.7430  13.7535
    13.8406  13.8626  13.8761  13.8895  13.9049  13.9228  13.9391  13.9554
    13.9641  13.9668  13.9804  13.9904  14.0009  14.0140  14.0271  14.0345
    14.0426  14.0500  14.0574  14.0650  14.0676  14.0793  14.0837  14.0997
    14.1046  14.1088  14.1195  14.1312  14.1376  14.1511  14.1661  14.1744
    14.2414  14.2688  14.3042  14.3231  14.3303  14.3483  14.3547  14.3580
    14.3728  14.3862  14.3935  14.4016  14.4150  14.4209  14.4289  14.4372
    14.4631  14.4875  14.5096  14.5531  14.5682  14.5835  14.6062  14.6185
    14.6740  14.6899  14.6950  14.6957  14.7540  14.7559  14.7785  14.7984
    14.8035  14.8181  14.8293  14.8419  14.8461  14.8566  14.8661  14.8820
    14.8839  14.8916  14.9001  14.9053  14.9115  14.9156  14.9278  14.9309
    14.9438  14.9540  14.9579  14.9641  14.9661  14.9813  14.9913  14.9973
    15.0084  15.0186  15.0278  15.0329  15.0383  15.0543  15.0554  15.0629
    15.0696  15.0734  15.0873  15.0907  15.1002  15.1049  15.1136  15.1297
    15.1436  15.1504  15.1629  15.1735  15.1865  15.2184  15.2241  15.2347
    15.2450  15.2591  15.2814  15.2870  15.2888  15.3007  15.3025  15.3100
    15.3233  15.3279  15.3398  15.3444  15.3516  15.3579  15.3662  15.3725
    15.3786  15.3855  15.3915  15.4024  15.4085  15.4114  15.4156  15.4205
    15.4251  15.4418  15.4451  15.4467  15.4616  15.4618  15.4801  15.4831
    15.5054  15.5172  15.5352  15.5527  15.5683  15.5789  15.5981  15.6077
    15.6301  15.6405  15.6499  15.6635  15.6679  15.6729  15.6795  15.6855
    15.6880  15.6940  15.7029  15.7054  15.7145  15.7226  15.7333  15.7375
    15.7400  15.7416  15.7575  15.7648  15.7708  15.7810  15.7842  15.7952
    15.8113  15.8340  15.8443  15.8527  15.8545  15.8587  15.8754  15.8961
    15.9254  15.9286  15.9480  15.9593  15.9669  15.9933  16.0309  16.0507
    16.0660  16.0950  16.1213  16.1528  16.1668  16.1789  16.1875  16.1904
    16.1974  16.2032  16.2108  16.2161  16.2195  16.2247  16.2252  16.2310
    16.2346  16.2460  16.2496  16.2642  16.2681  16.2744  16.2797  16.2858
    16.2949  16.2987  16.3043  16.3102  16.3137  16.3204  16.3511  16.3620
    16.5163  16.5291  16.5426  16.5484  16.5893  16.5945  16.5972  16.6141
    16.6436  16.6447  16.6621  16.6842  16.7104  16.7346  16.7685  16.7795
    16.7868  16.8050  16.8204  16.8328  16.8406  16.8513  16.8650  16.8778
    16.8949  16.8989  16.9015  16.9059  16.9169  16.9257  16.9326  16.9367
    16.9474  16.9519  16.9595  16.9676  16.9746  16.9828  16.9866  16.9950

     highest occupied, lowest unoccupied level (ev):     6.9441    7.1178

!    total energy              =  -34815.20715992 Ry
     estimated scf accuracy    <       0.00000342 Ry

     The total energy is the sum of the following terms:
     one-electron contribution =  -16870.98153110 Ry
     hartree contribution      =   10165.81973421 Ry
     xc contribution           =   -9298.77248000 Ry
     ewald contribution        =  -18813.51151288 Ry
     Hubbard energy            =       2.23862984 Ry

     convergence has been achieved in  12 iterations

     Writing all to output data dir ./tmp_In1.0Ga0.0As0.25Sb0.75_cube_3x3x3.6/In1.0Ga0.0As0.25Sb0.75_cube_3x3x3.6.save/ :
     XML data file, charge density, pseudopotentials, collected wavefunctions

     init_run     :    346.13s CPU    349.55s WALL (       1 calls)
     electrons    :  13798.26s CPU  13834.93s WALL (       1 calls)

     Called by init_run:
     wfcinit      :    336.51s CPU    339.69s WALL (       1 calls)
     potinit      :      0.23s CPU      0.32s WALL (       1 calls)
     hinit0       :      0.96s CPU      0.99s WALL (       1 calls)

     Called by electrons:
     c_bands      :  13438.09s CPU  13473.43s WALL (      13 calls)
     sum_band     :    355.63s CPU    356.16s WALL (      13 calls)
     v_of_rho     :      2.76s CPU      2.92s WALL (      13 calls)
     mix_rho      :      0.83s CPU      0.85s WALL (      13 calls)

     Called by c_bands:
     init_us_2    :     48.90s CPU     49.33s WALL (      56 calls)
     cegterg      :  12996.84s CPU  13029.26s WALL (      26 calls)

     Called by *egterg:
     cdiaghg      :   1585.41s CPU   1586.36s WALL (     243 calls)
     h_psi        :   7509.10s CPU   7528.25s WALL (     247 calls)
     g_psi        :      8.24s CPU      8.25s WALL (     219 calls)

     Called by h_psi:
     h_psi:calbec :   1275.96s CPU   1276.09s WALL (     247 calls)
     vloc_psi     :    951.66s CPU    953.52s WALL (     247 calls)
     add_vuspsi   :   1237.88s CPU   1245.22s WALL (     247 calls)
     vhpsi        :   4028.96s CPU   4029.24s WALL (     247 calls)

     General routines
     calbec       :   1611.32s CPU   1611.48s WALL (     522 calls)
     fft          :      2.33s CPU      2.46s WALL (     131 calls)
     ffts         :      0.21s CPU      0.21s WALL (      13 calls)
     fftw         :    977.48s CPU    979.63s WALL (  329560 calls)

     Parallel routines

     Hubbard U routines
     new_ns       :     99.79s CPU     99.81s WALL (      13 calls)
     vhpsi        :   4028.96s CPU   4029.24s WALL (     247 calls)

     PWSCF        :      3h56m CPU      3h59m WALL


   This run was terminated on:  23:45: 3   7Apr2026            

=------------------------------------------------------------------------------=
   JOB DONE.
=------------------------------------------------------------------------------=
