
     Program PWSCF v.7.3.1 starts on 13Jun2025 at 15:45: 1 

     This program is part of the open-source Quantum ESPRESSO suite
     for quantum simulation of materials; please cite
         "P. Giannozzi et al., J. Phys.:Condens. Matter 21 395502 (2009);
         "P. Giannozzi et al., J. Phys.:Condens. Matter 29 465901 (2017);
         "P. Giannozzi et al., J. Chem. Phys. 152 154105 (2020);
          URL http://www.quantum-espresso.org", 
     in publications or presentations arising from this work. More details at
     http://www.quantum-espresso.org/quote

     Parallel version (MPI), running on   640 processors

     MPI processes distributed on     5 nodes
     433994 MiB available memory on the printing compute node when the environment starts

     Reading input from In0.0Ga1.0As0.75Sb0.25_cube_3x3x3.2.scf.in
Warning: card &CELL ignored
Warning: card   CELL_DOFREE = 'ALL', ignored
Warning: card / ignored

     Current dimensions of program PWSCF are:
     Max number of different atomic species (ntypx) = 10
     Max number of k-points (npk) =  40000
     Max angular momentum in pseudopotentials (lmaxx) =  4

     K-points division:     npool     =       8
     R & G space division:  proc/nbgrp/npool/nimage =      80
     Subspace diagonalization in iterative solution of the eigenvalue problem:
     one sub-group per band group will be used
     custom distributed-memory algorithm (size of sub-group:  8*  8 procs)


     Parallelization info
     --------------------
     sticks:   dense  smooth     PW     G-vecs:    dense   smooth      PW
     Min         515     515    132                78722    78722   10296
     Max         517     517    133                78726    78726   10303
     Sum       41245   41245  10629              6297865  6297865  823993

     Using Slab Decomposition



     bravais-lattice index     =            1
     lattice parameter (alat)  =      32.8554  a.u.
     unit-cell volume          =   35466.5007 (a.u.)^3
     number of atoms/cell      =          216
     number of atomic types    =            4
     number of electrons       =      3024.00
     number of Kohn-Sham states=         2160
     kinetic-energy cutoff     =     120.0000  Ry
     charge density cutoff     =     480.0000  Ry
     scf convergence threshold =      1.0E-05
     mixing beta               =       0.6500
     number of iterations used =            8  plain     mixing
     Exchange-correlation= PBE
                           (   1   4   3   4   0   0   0)
     Hubbard projectors: atomic
     Hubbard parameters of DFT+U (Dudarev formulation) in eV:
     U(As-4p) =  5.8400
     U(Ga-4p) = -3.2650
     U(In-5p) = -0.9725
     U(Sb-5p) =  4.8900

     Internal variables: lda_plus_u =T, lda_plus_u_kind = 0

     celldm(1)=  32.855351  celldm(2)=   0.000000  celldm(3)=   0.000000
     celldm(4)=   0.000000  celldm(5)=   0.000000  celldm(6)=   0.000000

     crystal axes: (cart. coord. in units of alat)
               a(1) = (   1.000000   0.000000   0.000000 )  
               a(2) = (   0.000000   1.000000   0.000000 )  
               a(3) = (   0.000000   0.000000   1.000000 )  

     reciprocal axes: (cart. coord. in units 2 pi/alat)
               b(1) = (  1.000000  0.000000  0.000000 )  
               b(2) = (  0.000000  1.000000  0.000000 )  
               b(3) = (  0.000000  0.000000  1.000000 )  


     PseudoPot. # 1 for As read from file:
     /work/i254/i254/gentles/data/pseudos/As.pbe.NC-SR.standard.v0.5.UPF
     MD5 check sum: bfe1a874457ce592347346129958e7cf
     Pseudo is Norm-conserving + core correction, Zval = 15.0
     Generated using ONCVPSP code by D. R. Hamann
     Using radial grid of 1358 points,  6 beta functions with: 
                l(1) =   0
                l(2) =   0
                l(3) =   1
                l(4) =   1
                l(5) =   2
                l(6) =   2

     PseudoPot. # 2 for Ga read from file:
     /work/i254/i254/gentles/data/pseudos/Ga.pbe.NC-SR.standard.v0.5.UPF
     MD5 check sum: 2bb81bf6f0a8d9832cf3329850435ecf
     Pseudo is Norm-conserving + core correction, Zval = 13.0
     Generated using ONCVPSP code by D. R. Hamann
     Using radial grid of 1902 points,  6 beta functions with: 
                l(1) =   0
                l(2) =   0
                l(3) =   1
                l(4) =   1
                l(5) =   2
                l(6) =   2

     PseudoPot. # 3 for In read from file:
     /work/i254/i254/gentles/data/pseudos/In.pbe.NC-SR.standard.v0.5.UPF
     MD5 check sum: 835f4bf908c982ff75c88e16816a8d7f
     Pseudo is Norm-conserving + core correction, Zval = 13.0
     Generated using ONCVPSP code by D. R. Hamann
     Using radial grid of 1964 points,  6 beta functions with: 
                l(1) =   0
                l(2) =   0
                l(3) =   1
                l(4) =   1
                l(5) =   2
                l(6) =   2

     PseudoPot. # 4 for Sb read from file:
     /work/i254/i254/gentles/data/pseudos/Sb.pbe.NC-SR.standard.v0.5.UPF
     MD5 check sum: 127f69b6101c45666faeae1b5d611565
     Pseudo is Norm-conserving + core correction, Zval = 15.0
     Generated using ONCVPSP code by D. R. Hamann
     Using radial grid of 1434 points,  6 beta functions with: 
                l(1) =   0
                l(2) =   0
                l(3) =   1
                l(4) =   1
                l(5) =   2
                l(6) =   2

     atomic species   valence    mass     pseudopotential
     As               15.00    74.92160     As( 1.00)
     Ga               13.00    69.72300     Ga( 1.00)
     In               13.00   114.81800     In( 1.00)
     Sb               15.00   121.76000     Sb( 1.00)

     No symmetry found



   Cartesian axes

     site n.     atom                  positions (alat units)
         1        Ga     tau(   1) = (   0.0017830  -0.0022330   0.0004320  )
         2        Ga     tau(   2) = (   0.0014500   0.1661010   0.1652850  )
         3        Ga     tau(   3) = (   0.1652650  -0.0009450   0.1671960  )
         4        Ga     tau(   4) = (   0.1718260   0.1614990   0.0058470  )
         5        As     tau(   5) = (   0.0834320   0.0808440   0.0840180  )
         6        As     tau(   6) = (   0.0855590   0.2472570   0.2468370  )
         7        As     tau(   7) = (   0.2476290   0.0814740   0.2493720  )
         8        As     tau(   8) = (   0.2527470   0.2458630   0.0876150  )
         9        Ga     tau(   9) = (  -0.0001520   0.0009130   0.3316070  )
        10        Ga     tau(  10) = (   0.0045890   0.1609690   0.5022390  )
        11        Ga     tau(  11) = (   0.1682260  -0.0028750   0.4880680  )
        12        Ga     tau(  12) = (   0.1652770   0.1653600   0.3313820  )
        13        As     tau(  13) = (   0.0837170   0.0822000   0.4136020  )
        14        As     tau(  14) = (   0.0827940   0.2493410   0.5823770  )
        15        Sb     tau(  15) = (   0.2488070   0.0814430   0.5818590  )
        16        As     tau(  16) = (   0.2476060   0.2510840   0.4114330  )
        17        Ga     tau(  17) = (  -0.0036090   0.0014500   0.6693170  )
        18        Ga     tau(  18) = (   0.0001680   0.1565090   0.8362730  )
        19        Ga     tau(  19) = (   0.1671790  -0.0018560   0.8331990  )
        20        Ga     tau(  20) = (   0.1555760   0.1635650   0.6677440  )
        21        As     tau(  21) = (   0.0812570   0.0784310   0.7519210  )
        22        Sb     tau(  22) = (   0.0824880   0.2485530   0.9203590  )
        23        As     tau(  23) = (   0.2504660   0.0785650   0.9193360  )
        24        Sb     tau(  24) = (   0.2466160   0.2479660   0.7508590  )
        25        Ga     tau(  25) = (  -0.0105210   0.3335810   0.0018400  )
        26        Ga     tau(  26) = (  -0.0029210   0.5061570   0.1707500  )
        27        Ga     tau(  27) = (   0.1722600   0.3293200   0.1703670  )
        28        Ga     tau(  28) = (   0.1660040   0.5112930   0.0029210  )
        29        Sb     tau(  29) = (   0.0826120   0.4178220   0.0859720  )
        30        As     tau(  30) = (   0.0845600   0.5851180   0.2512210  )
        31        As     tau(  31) = (   0.2521580   0.4177430   0.2500070  )
        32        As     tau(  32) = (   0.2517510   0.5867330   0.0866670  )
        33        Ga     tau(  33) = (   0.0016730   0.3327980   0.3227490  )
        34        Ga     tau(  34) = (  -0.0045640   0.5071360   0.5028420  )
        35        Ga     tau(  35) = (   0.1691280   0.3283080   0.5005570  )
        36        Ga     tau(  36) = (   0.1713200   0.5047340   0.3301420  )
        37        Sb     tau(  37) = (   0.0830230   0.4185610   0.4161610  )
        38        As     tau(  38) = (   0.0832580   0.5858530   0.5828230  )
        39        As     tau(  39) = (   0.2475110   0.4185350   0.5778810  )
        40        As     tau(  40) = (   0.2509550   0.5871780   0.4150460  )
        41        Ga     tau(  41) = (   0.0029250   0.3378870   0.6613620  )
        42        Ga     tau(  42) = (   0.0000310   0.4994670   0.8334120  )
        43        Ga     tau(  43) = (   0.1605710   0.3402070   0.8302690  )
        44        Ga     tau(  44) = (   0.1629070   0.4982240   0.6604920  )
        45        As     tau(  45) = (   0.0808430   0.4199560   0.7462080  )
        46        As     tau(  46) = (   0.0813320   0.5844940   0.9159890  )
        47        Sb     tau(  47) = (   0.2505680   0.4197400   0.9206310  )
        48        Sb     tau(  48) = (   0.2477290   0.5871150   0.7489240  )
        49        Ga     tau(  49) = (  -0.0028760   0.6631570  -0.0028100  )
        50        Ga     tau(  50) = (  -0.0019240   0.8383520   0.1730330  )
        51        Ga     tau(  51) = (   0.1710820   0.6653200   0.1716520  )
        52        Ga     tau(  52) = (   0.1706630   0.8388030  -0.0025630  )
        53        Sb     tau(  53) = (   0.0838720   0.7511500   0.0842100  )
        54        As     tau(  54) = (   0.0843180   0.9177490   0.2522310  )
        55        As     tau(  55) = (   0.2521580   0.7501810   0.2505380  )
        56        As     tau(  56) = (   0.2499890   0.9169600   0.0856500  )
        57        Ga     tau(  57) = (   0.0028520   0.6676170   0.3325720  )
        58        Ga     tau(  58) = (   0.0010720   0.8314400   0.4902250  )
        59        Ga     tau(  59) = (   0.1671100   0.6678740   0.4991220  )
        60        Ga     tau(  60) = (   0.1670820   0.8308030   0.3308660  )
        61        As     tau(  61) = (   0.0859140   0.7487610   0.4131940  )
        62        Sb     tau(  62) = (   0.0845340   0.9150170   0.5821780  )
        63        As     tau(  63) = (   0.2514170   0.7505460   0.5810570  )
        64        As     tau(  64) = (   0.2497010   0.9118800   0.4110920  )
        65        Ga     tau(  65) = (   0.0047260   0.6643930   0.6722350  )
        66        Ga     tau(  66) = (   0.0003760   0.8344500   0.8339800  )
        67        Ga     tau(  67) = (   0.1618210   0.6728090   0.8391950  )
        68        Ga     tau(  68) = (   0.1715090   0.8287050   0.6704940  )
        69        As     tau(  69) = (   0.0833340   0.7518800   0.7530160  )
        70        As     tau(  70) = (   0.0841390   0.9174700   0.9156000  )
        71        As     tau(  71) = (   0.2503130   0.7516940   0.9187140  )
        72        As     tau(  72) = (   0.2509190   0.9138310   0.7528320  )
        73        Ga     tau(  73) = (   0.3326340  -0.0028670   0.0032600  )
        74        Ga     tau(  74) = (   0.3327660   0.1636690   0.1693140  )
        75        Ga     tau(  75) = (   0.4991850  -0.0025740   0.1675500  )
        76        Ga     tau(  76) = (   0.4917030   0.1650850   0.0039290  )
        77        As     tau(  77) = (   0.4143500   0.0798580   0.0867830  )
        78        As     tau(  78) = (   0.4129090   0.2514640   0.2490460  )
        79        As     tau(  79) = (   0.5834880   0.0802420   0.2485390  )
        80        Sb     tau(  80) = (   0.5826930   0.2499160   0.0881980  )
        81        Ga     tau(  81) = (   0.3283650  -0.0071470   0.3264730  )
        82        Ga     tau(  82) = (   0.3299290   0.1710430   0.4921990  )
        83        Ga     tau(  83) = (   0.5033880  -0.0070810   0.5040800  )
        84        Ga     tau(  84) = (   0.4986550   0.1658550   0.3223990  )
        85        Sb     tau(  85) = (   0.4167260   0.0779910   0.4128440  )
        86        Sb     tau(  86) = (   0.4186760   0.2517340   0.5815100  )
        87        As     tau(  87) = (   0.5859410   0.0792570   0.5825380  )
        88        Sb     tau(  88) = (   0.5842920   0.2500630   0.4124950  )
        89        Ga     tau(  89) = (   0.3353700  -0.0066280   0.6700680  )
        90        Ga     tau(  90) = (   0.3337790   0.1609640   0.8383940  )
        91        Ga     tau(  91) = (   0.4916870  -0.0034350   0.8351910  )
        92        Ga     tau(  92) = (   0.5001580   0.1551880   0.6664260  )
        93        As     tau(  93) = (   0.4140000   0.0793290   0.7519160  )
        94        As     tau(  94) = (   0.4120390   0.2461640   0.9213240  )
        95        Sb     tau(  95) = (   0.5837300   0.0822170   0.9188940  )
        96        Sb     tau(  96) = (   0.5860140   0.2475060   0.7494430  )
        97        Ga     tau(  97) = (   0.3347190   0.3291550   0.0069050  )
        98        Ga     tau(  98) = (   0.3328100   0.5006970   0.1667830  )
        99        Ga     tau(  99) = (   0.4942370   0.3394480   0.1716790  )
       100        Ga     tau( 100) = (   0.4960430   0.5064230   0.0058780  )
       101        As     tau( 101) = (   0.4148470   0.4188960   0.0852590  )
       102        As     tau( 102) = (   0.4155430   0.5842760   0.2496630  )
       103        As     tau( 103) = (   0.5806680   0.4194600   0.2493560  )
       104        As     tau( 104) = (   0.5821830   0.5857430   0.0852530  )
       105        Ga     tau( 105) = (   0.3330170   0.3350410   0.3333620  )
       106        Ga     tau( 106) = (   0.3316920   0.5029820   0.4966170  )
       107        Ga     tau( 107) = (   0.5018470   0.3437590   0.4967530  )
       108        Ga     tau( 108) = (   0.4992260   0.5031870   0.3323870  )
       109        As     tau( 109) = (   0.4153620   0.4208640   0.4144580  )
       110        As     tau( 110) = (   0.4161420   0.5852300   0.5782270  )
       111        As     tau( 111) = (   0.5854770   0.4213120   0.5799770  )
       112        As     tau( 112) = (   0.5800300   0.5865680   0.4155730  )
       113        Ga     tau( 113) = (   0.3265870   0.3385360   0.6621980  )
       114        Ga     tau( 114) = (   0.3388170   0.5090290   0.8395270  )
       115        Ga     tau( 115) = (   0.4955400   0.3262710   0.8399650  )
       116        Ga     tau( 116) = (   0.5003490   0.5021190   0.6578500  )
       117        Sb     tau( 117) = (   0.4170070   0.4183440   0.7503090  )
       118        As     tau( 118) = (   0.4162540   0.5903440   0.9230840  )
       119        Sb     tau( 119) = (   0.5845390   0.4183580   0.9196870  )
       120        Sb     tau( 120) = (   0.5834540   0.5882840   0.7486530  )
       121        Ga     tau( 121) = (   0.3320400   0.6706340   0.0039260  )
       122        Ga     tau( 122) = (   0.3332810   0.8321820   0.1662830  )
       123        Ga     tau( 123) = (   0.4984290   0.6672350   0.1684570  )
       124        Ga     tau( 124) = (   0.4980200   0.8334810   0.0027840  )
       125        As     tau( 125) = (   0.4163340   0.7507010   0.0853450  )
       126        As     tau( 126) = (   0.4157560   0.9143950   0.2477940  )
       127        As     tau( 127) = (   0.5795660   0.7504180   0.2504610  )
       128        As     tau( 128) = (   0.5803080   0.9139950   0.0863160  )
       129        Ga     tau( 129) = (   0.3346460   0.6689280   0.3332140  )
       130        Ga     tau( 130) = (   0.3318340   0.8338630   0.4972910  )
       131        Ga     tau( 131) = (   0.4978180   0.6683270   0.4957240  )
       132        Ga     tau( 132) = (   0.4980890   0.8341080   0.3325090  )
       133        As     tau( 133) = (   0.4158110   0.7520440   0.4151910  )
       134        As     tau( 134) = (   0.4152270   0.9125980   0.5828200  )
       135        As     tau( 135) = (   0.5820420   0.7500160   0.5765770  )
       136        As     tau( 136) = (   0.5823290   0.9138960   0.4172750  )
       137        Ga     tau( 137) = (   0.3370590   0.6701980   0.6612660  )
       138        Ga     tau( 138) = (   0.3327800   0.8317870   0.8345000  )
       139        Ga     tau( 139) = (   0.4952950   0.6722960   0.8386670  )
       140        Ga     tau( 140) = (   0.4964180   0.8265950   0.6609750  )
       141        As     tau( 141) = (   0.4152820   0.7505280   0.7498790  )
       142        As     tau( 142) = (   0.4136070   0.9134060   0.9198480  )
       143        As     tau( 143) = (   0.5796200   0.7483690   0.9233590  )
       144        Sb     tau( 144) = (   0.5816250   0.9143340   0.7475090  )
       145        Ga     tau( 145) = (   0.6665870  -0.0015140   0.0122340  )
       146        Ga     tau( 146) = (   0.6713220   0.1606870   0.1706550  )
       147        Ga     tau( 147) = (   0.8394070   0.0027790   0.1622620  )
       148        Ga     tau( 148) = (   0.8350790   0.1656200   0.0011650  )
       149        As     tau( 149) = (   0.7531520   0.0836850   0.0849710  )
       150        As     tau( 150) = (   0.7519580   0.2481670   0.2471590  )
       151        As     tau( 151) = (   0.9184740   0.0836890   0.2479390  )
       152        As     tau( 152) = (   0.9146260   0.2482210   0.0856630  )
       153        Ga     tau( 153) = (   0.6607850   0.0018350   0.3386240  )
       154        Ga     tau( 154) = (   0.6699380   0.1639210   0.5020740  )
       155        Ga     tau( 155) = (   0.8354230  -0.0015390   0.4966440  )
       156        Ga     tau( 156) = (   0.8293550   0.1616440   0.3296210  )
       157        As     tau( 157) = (   0.7495360   0.0812510   0.4169500  )
       158        As     tau( 158) = (   0.7490020   0.2496790   0.5844830  )
       159        As     tau( 159) = (   0.9163810   0.0811960   0.5816910  )
       160        Sb     tau( 160) = (   0.9177230   0.2476740   0.4155020  )
       161        Ga     tau( 161) = (   0.6721830   0.0022330   0.6638530  )
       162        Ga     tau( 162) = (   0.6787610   0.1654870   0.8341150  )
       163        Ga     tau( 163) = (   0.8376020   0.0025940   0.8315460  )
       164        Ga     tau( 164) = (   0.8310780   0.1637540   0.6614070  )
       165        As     tau( 165) = (   0.7550010   0.0821220   0.7480130  )
       166        As     tau( 166) = (   0.7562220   0.2498820   0.9179900  )
       167        As     tau( 167) = (   0.9167890   0.0801370   0.9203480  )
       168        Sb     tau( 168) = (   0.9180160   0.2494340   0.7492040  )
       169        Ga     tau( 169) = (   0.6757720   0.3312910   0.0019490  )
       170        Ga     tau( 170) = (   0.6620910   0.4969880   0.1624220  )
       171        Ga     tau( 171) = (   0.8336560   0.3327080   0.1666710  )
       172        Ga     tau( 172) = (   0.8331810   0.5017080   0.0034760  )
       173        As     tau( 173) = (   0.7521760   0.4162790   0.0847280  )
       174        Sb     tau( 174) = (   0.7499970   0.5842200   0.2496830  )
       175        As     tau( 175) = (   0.9175350   0.4166500   0.2466960  )
       176        As     tau( 176) = (   0.9158720   0.5854900   0.0838390  )
       177        Ga     tau( 177) = (   0.6684910   0.3338930   0.3221880  )
       178        Ga     tau( 178) = (   0.6627140   0.5065890   0.4997410  )
       179        Ga     tau( 179) = (   0.8339980   0.3330870   0.5078440  )
       180        Ga     tau( 180) = (   0.8437730   0.4999800   0.3333240  )
       181        Sb     tau( 181) = (   0.7506780   0.4179420   0.4161680  )
       182        As     tau( 182) = (   0.7502790   0.5817950   0.5811200  )
       183        As     tau( 183) = (   0.9164610   0.4207640   0.5846180  )
       184        As     tau( 184) = (   0.9186830   0.5869150   0.4150120  )
       185        Ga     tau( 185) = (   0.6692380   0.3392830   0.6624770  )
       186        Ga     tau( 186) = (   0.6747440   0.5025660   0.8321410  )
       187        Ga     tau( 187) = (   0.8319660   0.3382650   0.8360120  )
       188        Ga     tau( 188) = (   0.8347010   0.5018970   0.6677310  )
       189        As     tau( 189) = (   0.7523570   0.4187580   0.7485370  )
       190        As     tau( 190) = (   0.7525880   0.5840340   0.9194960  )
       191        As     tau( 191) = (   0.9143080   0.4202550   0.9179740  )
       192        As     tau( 192) = (   0.9189260   0.5822250   0.7521140  )
       193        Ga     tau( 193) = (   0.6667250   0.6653810   0.0010610  )
       194        Ga     tau( 194) = (   0.6619200   0.8280920   0.1639570  )
       195        Ga     tau( 195) = (   0.8360930   0.6722400   0.1634080  )
       196        Ga     tau( 196) = (   0.8390290   0.8292010   0.0041940  )
       197        As     tau( 197) = (   0.7495330   0.7496270   0.0820400  )
       198        Sb     tau( 198) = (   0.7494290   0.9165780   0.2495170  )
       199        As     tau( 199) = (   0.9183750   0.7502880   0.2513950  )
       200        As     tau( 200) = (   0.9198660   0.9160760   0.0841540  )
       201        Ga     tau( 201) = (   0.6612890   0.6717210   0.3359630  )
       202        Ga     tau( 202) = (   0.6672810   0.8340850   0.4988430  )
       203        Ga     tau( 203) = (   0.8279590   0.6621170   0.4949940  )
       204        Ga     tau( 204) = (   0.8359210   0.8286970   0.3364240  )
       205        As     tau( 205) = (   0.7480920   0.7500250   0.4173560  )
       206        As     tau( 206) = (   0.7512700   0.9192380   0.5799890  )
       207        Sb     tau( 207) = (   0.9160770   0.7483840   0.5822630  )
       208        As     tau( 208) = (   0.9177490   0.9165210   0.4132370  )
       209        Ga     tau( 209) = (   0.6678870   0.6696640   0.6551030  )
       210        Ga     tau( 210) = (   0.6604730   0.8270320   0.8405500  )
       211        Ga     tau( 211) = (   0.8389720   0.6635640   0.8376090  )
       212        Ga     tau( 212) = (   0.8345840   0.8438760   0.6666840  )
       213        Sb     tau( 213) = (   0.7517840   0.7501090   0.7499340  )
       214        Sb     tau( 214) = (   0.7513790   0.9161400   0.9199700  )
       215        As     tau( 215) = (   0.9192330   0.7495710   0.9171560  )
       216        As     tau( 216) = (   0.9185040   0.9188040   0.7522130  )

     number of k points=     8
                       cart. coord. in units 2pi/alat
        k(    1) = (   0.0000000   0.0000000   0.0000000), wk =   0.2500000
        k(    2) = (   0.0000000   0.0000000  -0.5000000), wk =   0.2500000
        k(    3) = (   0.0000000  -0.5000000  -0.5000000), wk =   0.2500000
        k(    4) = (  -0.5000000  -0.5000000  -0.5000000), wk =   0.2500000
        k(    5) = (  -0.5000000   0.0000000   0.0000000), wk =   0.2500000
        k(    6) = (   0.0000000  -0.5000000   0.0000000), wk =   0.2500000
        k(    7) = (  -0.5000000   0.0000000   0.5000000), wk =   0.2500000
        k(    8) = (  -0.5000000   0.5000000   0.0000000), wk =   0.2500000

     Dense  grid:  6297865 G-vectors     FFT dimensions: ( 240, 240, 240)

     Estimated max dynamical RAM per process >       2.44 GB

     Estimated total dynamical RAM >    1554.00 GB

     Initial potential from superposition of free atoms

     starting charge    3023.6766, renormalised to    3024.0000

     STARTING HUBBARD OCCUPATIONS:

     =================== HUBBARD OCCUPATIONS ===================
     ------------------------ ATOM    1 ------------------------
     Tr[ns(  1)] =   1.00000
     eigenvalues:
       0.167  0.167  0.167
     eigenvectors (columns):
       1.000  0.000  0.000
       0.000  1.000  0.000
       0.000  0.000  1.000
     occupation matrix ns (before diag.):
       0.167  0.000  0.000
       0.000  0.167  0.000
       0.000  0.000  0.167
     ------------------------ ATOM    2 ------------------------
     Tr[ns(  2)] =   1.00000
     eigenvalues:
       0.167  0.167  0.167
     eigenvectors (columns):
       1.000  0.000  0.000
       0.000  1.000  0.000
       0.000  0.000  1.000
     occupation matrix ns (before diag.):
       0.167  0.000  0.000
       0.000  0.167  0.000
       0.000  0.000  0.167
     ------------------------ ATOM    3 ------------------------
     Tr[ns(  3)] =   1.00000
     eigenvalues:
       0.167  0.167  0.167
     eigenvectors (columns):
       1.000  0.000  0.000
       0.000  1.000  0.000
       0.000  0.000  1.000
     occupation matrix ns (before diag.):
       0.167  0.000  0.000
       0.000  0.167  0.000
       0.000  0.000  0.167
     ------------------------ ATOM    4 ------------------------
     Tr[ns(  4)] =   1.00000
     eigenvalues:
       0.167  0.167  0.167
     eigenvectors (columns):
       1.000  0.000  0.000
       0.000  1.000  0.000
       0.000  0.000  1.000
     occupation matrix ns (before diag.):
       0.167  0.000  0.000
       0.000  0.167  0.000
       0.000  0.000  0.167
     ------------------------ ATOM    5 ------------------------
     Tr[ns(  5)] =   3.00000
     eigenvalues:
       0.500  0.500  0.500
     eigenvectors (columns):
       1.000  0.000  0.000
       0.000  1.000  0.000
       0.000  0.000  1.000
     occupation matrix ns (before diag.):
       0.500  0.000  0.000
       0.000  0.500  0.000
       0.000  0.000  0.500
     ------------------------ ATOM    6 ------------------------
     Tr[ns(  6)] =   3.00000
     eigenvalues:
       0.500  0.500  0.500
     eigenvectors (columns):
       1.000  0.000  0.000
       0.000  1.000  0.000
       0.000  0.000  1.000
     occupation matrix ns (before diag.):
       0.500  0.000  0.000
       0.000  0.500  0.000
       0.000  0.000  0.500
     ------------------------ ATOM    7 ------------------------
     Tr[ns(  7)] =   3.00000
     eigenvalues:
       0.500  0.500  0.500
     eigenvectors (columns):
       1.000  0.000  0.000
       0.000  1.000  0.000
       0.000  0.000  1.000
     occupation matrix ns (before diag.):
       0.500  0.000  0.000
       0.000  0.500  0.000
       0.000  0.000  0.500
     ------------------------ ATOM    8 ------------------------
     Tr[ns(  8)] =   3.00000
     eigenvalues:
       0.500  0.500  0.500
     eigenvectors (columns):
       1.000  0.000  0.000
       0.000  1.000  0.000
       0.000  0.000  1.000
     occupation matrix ns (before diag.):
       0.500  0.000  0.000
       0.000  0.500  0.000
       0.000  0.000  0.500
     ------------------------ ATOM    9 ------------------------
     Tr[ns(  9)] =   1.00000
     eigenvalues:
       0.167  0.167  0.167
     eigenvectors (columns):
       1.000  0.000  0.000
       0.000  1.000  0.000
       0.000  0.000  1.000
     occupation matrix ns (before diag.):
       0.167  0.000  0.000
       0.000  0.167  0.000
       0.000  0.000  0.167
     ------------------------ ATOM   10 ------------------------
     Tr[ns( 10)] =   1.00000
     eigenvalues:
       0.167  0.167  0.167
     eigenvectors (columns):
       1.000  0.000  0.000
       0.000  1.000  0.000
       0.000  0.000  1.000
     occupation matrix ns (before diag.):
       0.167  0.000  0.000
       0.000  0.167  0.000
       0.000  0.000  0.167
     ------------------------ ATOM   11 ------------------------
     Tr[ns( 11)] =   1.00000
     eigenvalues:
       0.167  0.167  0.167
     eigenvectors (columns):
       1.000  0.000  0.000
       0.000  1.000  0.000
       0.000  0.000  1.000
     occupation matrix ns (before diag.):
       0.167  0.000  0.000
       0.000  0.167  0.000
       0.000  0.000  0.167
     ------------------------ ATOM   12 ------------------------
     Tr[ns( 12)] =   1.00000
     eigenvalues:
       0.167  0.167  0.167
     eigenvectors (columns):
       1.000  0.000  0.000
       0.000  1.000  0.000
       0.000  0.000  1.000
     occupation matrix ns (before diag.):
       0.167  0.000  0.000
       0.000  0.167  0.000
       0.000  0.000  0.167
     ------------------------ ATOM   13 ------------------------
     Tr[ns( 13)] =   3.00000
     eigenvalues:
       0.500  0.500  0.500
     eigenvectors (columns):
       1.000  0.000  0.000
       0.000  1.000  0.000
       0.000  0.000  1.000
     occupation matrix ns (before diag.):
       0.500  0.000  0.000
       0.000  0.500  0.000
       0.000  0.000  0.500
     ------------------------ ATOM   14 ------------------------
     Tr[ns( 14)] =   3.00000
     eigenvalues:
       0.500  0.500  0.500
     eigenvectors (columns):
       1.000  0.000  0.000
       0.000  1.000  0.000
       0.000  0.000  1.000
     occupation matrix ns (before diag.):
       0.500  0.000  0.000
       0.000  0.500  0.000
       0.000  0.000  0.500
     ------------------------ ATOM   15 ------------------------
     Tr[ns( 15)] =   3.00000
     eigenvalues:
       0.500  0.500  0.500
     eigenvectors (columns):
       1.000  0.000  0.000
       0.000  1.000  0.000
       0.000  0.000  1.000
     occupation matrix ns (before diag.):
       0.500  0.000  0.000
       0.000  0.500  0.000
       0.000  0.000  0.500
     ------------------------ ATOM   16 ------------------------
     Tr[ns( 16)] =   3.00000
     eigenvalues:
       0.500  0.500  0.500
     eigenvectors (columns):
       1.000  0.000  0.000
       0.000  1.000  0.000
       0.000  0.000  1.000
     occupation matrix ns (before diag.):
       0.500  0.000  0.000
       0.000  0.500  0.000
       0.000  0.000  0.500
     ------------------------ ATOM   17 ------------------------
     Tr[ns( 17)] =   1.00000
     eigenvalues:
       0.167  0.167  0.167
     eigenvectors (columns):
       1.000  0.000  0.000
       0.000  1.000  0.000
       0.000  0.000  1.000
     occupation matrix ns (before diag.):
       0.167  0.000  0.000
       0.000  0.167  0.000
       0.000  0.000  0.167
     ------------------------ ATOM   18 ------------------------
     Tr[ns( 18)] =   1.00000
     eigenvalues:
       0.167  0.167  0.167
     eigenvectors (columns):
       1.000  0.000  0.000
       0.000  1.000  0.000
       0.000  0.000  1.000
     occupation matrix ns (before diag.):
       0.167  0.000  0.000
       0.000  0.167  0.000
       0.000  0.000  0.167
     ------------------------ ATOM   19 ------------------------
     Tr[ns( 19)] =   1.00000
     eigenvalues:
       0.167  0.167  0.167
     eigenvectors (columns):
       1.000  0.000  0.000
       0.000  1.000  0.000
       0.000  0.000  1.000
     occupation matrix ns (before diag.):
       0.167  0.000  0.000
       0.000  0.167  0.000
       0.000  0.000  0.167
     ------------------------ ATOM   20 ------------------------
     Tr[ns( 20)] =   1.00000
     eigenvalues:
       0.167  0.167  0.167
     eigenvectors (columns):
       1.000  0.000  0.000
       0.000  1.000  0.000
       0.000  0.000  1.000
     occupation matrix ns (before diag.):
       0.167  0.000  0.000
       0.000  0.167  0.000
       0.000  0.000  0.167
     ------------------------ ATOM   21 ------------------------
     Tr[ns( 21)] =   3.00000
     eigenvalues:
       0.500  0.500  0.500
     eigenvectors (columns):
       1.000  0.000  0.000
       0.000  1.000  0.000
       0.000  0.000  1.000
     occupation matrix ns (before diag.):
       0.500  0.000  0.000
       0.000  0.500  0.000
       0.000  0.000  0.500
     ------------------------ ATOM   22 ------------------------
     Tr[ns( 22)] =   3.00000
     eigenvalues:
       0.500  0.500  0.500
     eigenvectors (columns):
       1.000  0.000  0.000
       0.000  1.000  0.000
       0.000  0.000  1.000
     occupation matrix ns (before diag.):
       0.500  0.000  0.000
       0.000  0.500  0.000
       0.000  0.000  0.500
     ------------------------ ATOM   23 ------------------------
     Tr[ns( 23)] =   3.00000
     eigenvalues:
       0.500  0.500  0.500
     eigenvectors (columns):
       1.000  0.000  0.000
       0.000  1.000  0.000
       0.000  0.000  1.000
     occupation matrix ns (before diag.):
       0.500  0.000  0.000
       0.000  0.500  0.000
       0.000  0.000  0.500
     ------------------------ ATOM   24 ------------------------
     Tr[ns( 24)] =   3.00000
     eigenvalues:
       0.500  0.500  0.500
     eigenvectors (columns):
       1.000  0.000  0.000
       0.000  1.000  0.000
       0.000  0.000  1.000
     occupation matrix ns (before diag.):
       0.500  0.000  0.000
       0.000  0.500  0.000
       0.000  0.000  0.500
     ------------------------ ATOM   25 ------------------------
     Tr[ns( 25)] =   1.00000
     eigenvalues:
       0.167  0.167  0.167
     eigenvectors (columns):
       1.000  0.000  0.000
       0.000  1.000  0.000
       0.000  0.000  1.000
     occupation matrix ns (before diag.):
       0.167  0.000  0.000
       0.000  0.167  0.000
       0.000  0.000  0.167
     ------------------------ ATOM   26 ------------------------
     Tr[ns( 26)] =   1.00000
     eigenvalues:
       0.167  0.167  0.167
     eigenvectors (columns):
       1.000  0.000  0.000
       0.000  1.000  0.000
       0.000  0.000  1.000
     occupation matrix ns (before diag.):
       0.167  0.000  0.000
       0.000  0.167  0.000
       0.000  0.000  0.167
     ------------------------ ATOM   27 ------------------------
     Tr[ns( 27)] =   1.00000
     eigenvalues:
       0.167  0.167  0.167
     eigenvectors (columns):
       1.000  0.000  0.000
       0.000  1.000  0.000
       0.000  0.000  1.000
     occupation matrix ns (before diag.):
       0.167  0.000  0.000
       0.000  0.167  0.000
       0.000  0.000  0.167
     ------------------------ ATOM   28 ------------------------
     Tr[ns( 28)] =   1.00000
     eigenvalues:
       0.167  0.167  0.167
     eigenvectors (columns):
       1.000  0.000  0.000
       0.000  1.000  0.000
       0.000  0.000  1.000
     occupation matrix ns (before diag.):
       0.167  0.000  0.000
       0.000  0.167  0.000
       0.000  0.000  0.167
     ------------------------ ATOM   29 ------------------------
     Tr[ns( 29)] =   3.00000
     eigenvalues:
       0.500  0.500  0.500
     eigenvectors (columns):
       1.000  0.000  0.000
       0.000  1.000  0.000
       0.000  0.000  1.000
     occupation matrix ns (before diag.):
       0.500  0.000  0.000
       0.000  0.500  0.000
       0.000  0.000  0.500
     ------------------------ ATOM   30 ------------------------
     Tr[ns( 30)] =   3.00000
     eigenvalues:
       0.500  0.500  0.500
     eigenvectors (columns):
       1.000  0.000  0.000
       0.000  1.000  0.000
       0.000  0.000  1.000
     occupation matrix ns (before diag.):
       0.500  0.000  0.000
       0.000  0.500  0.000
       0.000  0.000  0.500
     ------------------------ ATOM   31 ------------------------
     Tr[ns( 31)] =   3.00000
     eigenvalues:
       0.500  0.500  0.500
     eigenvectors (columns):
       1.000  0.000  0.000
       0.000  1.000  0.000
       0.000  0.000  1.000
     occupation matrix ns (before diag.):
       0.500  0.000  0.000
       0.000  0.500  0.000
       0.000  0.000  0.500
     ------------------------ ATOM   32 ------------------------
     Tr[ns( 32)] =   3.00000
     eigenvalues:
       0.500  0.500  0.500
     eigenvectors (columns):
       1.000  0.000  0.000
       0.000  1.000  0.000
       0.000  0.000  1.000
     occupation matrix ns (before diag.):
       0.500  0.000  0.000
       0.000  0.500  0.000
       0.000  0.000  0.500
     ------------------------ ATOM   33 ------------------------
     Tr[ns( 33)] =   1.00000
     eigenvalues:
       0.167  0.167  0.167
     eigenvectors (columns):
       1.000  0.000  0.000
       0.000  1.000  0.000
       0.000  0.000  1.000
     occupation matrix ns (before diag.):
       0.167  0.000  0.000
       0.000  0.167  0.000
       0.000  0.000  0.167
     ------------------------ ATOM   34 ------------------------
     Tr[ns( 34)] =   1.00000
     eigenvalues:
       0.167  0.167  0.167
     eigenvectors (columns):
       1.000  0.000  0.000
       0.000  1.000  0.000
       0.000  0.000  1.000
     occupation matrix ns (before diag.):
       0.167  0.000  0.000
       0.000  0.167  0.000
       0.000  0.000  0.167
     ------------------------ ATOM   35 ------------------------
     Tr[ns( 35)] =   1.00000
     eigenvalues:
       0.167  0.167  0.167
     eigenvectors (columns):
       1.000  0.000  0.000
       0.000  1.000  0.000
       0.000  0.000  1.000
     occupation matrix ns (before diag.):
       0.167  0.000  0.000
       0.000  0.167  0.000
       0.000  0.000  0.167
     ------------------------ ATOM   36 ------------------------
     Tr[ns( 36)] =   1.00000
     eigenvalues:
       0.167  0.167  0.167
     eigenvectors (columns):
       1.000  0.000  0.000
       0.000  1.000  0.000
       0.000  0.000  1.000
     occupation matrix ns (before diag.):
       0.167  0.000  0.000
       0.000  0.167  0.000
       0.000  0.000  0.167
     ------------------------ ATOM   37 ------------------------
     Tr[ns( 37)] =   3.00000
     eigenvalues:
       0.500  0.500  0.500
     eigenvectors (columns):
       1.000  0.000  0.000
       0.000  1.000  0.000
       0.000  0.000  1.000
     occupation matrix ns (before diag.):
       0.500  0.000  0.000
       0.000  0.500  0.000
       0.000  0.000  0.500
     ------------------------ ATOM   38 ------------------------
     Tr[ns( 38)] =   3.00000
     eigenvalues:
       0.500  0.500  0.500
     eigenvectors (columns):
       1.000  0.000  0.000
       0.000  1.000  0.000
       0.000  0.000  1.000
     occupation matrix ns (before diag.):
       0.500  0.000  0.000
       0.000  0.500  0.000
       0.000  0.000  0.500
     ------------------------ ATOM   39 ------------------------
     Tr[ns( 39)] =   3.00000
     eigenvalues:
       0.500  0.500  0.500
     eigenvectors (columns):
       1.000  0.000  0.000
       0.000  1.000  0.000
       0.000  0.000  1.000
     occupation matrix ns (before diag.):
       0.500  0.000  0.000
       0.000  0.500  0.000
       0.000  0.000  0.500
     ------------------------ ATOM   40 ------------------------
     Tr[ns( 40)] =   3.00000
     eigenvalues:
       0.500  0.500  0.500
     eigenvectors (columns):
       1.000  0.000  0.000
       0.000  1.000  0.000
       0.000  0.000  1.000
     occupation matrix ns (before diag.):
       0.500  0.000  0.000
       0.000  0.500  0.000
       0.000  0.000  0.500
     ------------------------ ATOM   41 ------------------------
     Tr[ns( 41)] =   1.00000
     eigenvalues:
       0.167  0.167  0.167
     eigenvectors (columns):
       1.000  0.000  0.000
       0.000  1.000  0.000
       0.000  0.000  1.000
     occupation matrix ns (before diag.):
       0.167  0.000  0.000
       0.000  0.167  0.000
       0.000  0.000  0.167
     ------------------------ ATOM   42 ------------------------
     Tr[ns( 42)] =   1.00000
     eigenvalues:
       0.167  0.167  0.167
     eigenvectors (columns):
       1.000  0.000  0.000
       0.000  1.000  0.000
       0.000  0.000  1.000
     occupation matrix ns (before diag.):
       0.167  0.000  0.000
       0.000  0.167  0.000
       0.000  0.000  0.167
     ------------------------ ATOM   43 ------------------------
     Tr[ns( 43)] =   1.00000
     eigenvalues:
       0.167  0.167  0.167
     eigenvectors (columns):
       1.000  0.000  0.000
       0.000  1.000  0.000
       0.000  0.000  1.000
     occupation matrix ns (before diag.):
       0.167  0.000  0.000
       0.000  0.167  0.000
       0.000  0.000  0.167
     ------------------------ ATOM   44 ------------------------
     Tr[ns( 44)] =   1.00000
     eigenvalues:
       0.167  0.167  0.167
     eigenvectors (columns):
       1.000  0.000  0.000
       0.000  1.000  0.000
       0.000  0.000  1.000
     occupation matrix ns (before diag.):
       0.167  0.000  0.000
       0.000  0.167  0.000
       0.000  0.000  0.167
     ------------------------ ATOM   45 ------------------------
     Tr[ns( 45)] =   3.00000
     eigenvalues:
       0.500  0.500  0.500
     eigenvectors (columns):
       1.000  0.000  0.000
       0.000  1.000  0.000
       0.000  0.000  1.000
     occupation matrix ns (before diag.):
       0.500  0.000  0.000
       0.000  0.500  0.000
       0.000  0.000  0.500
     ------------------------ ATOM   46 ------------------------
     Tr[ns( 46)] =   3.00000
     eigenvalues:
       0.500  0.500  0.500
     eigenvectors (columns):
       1.000  0.000  0.000
       0.000  1.000  0.000
       0.000  0.000  1.000
     occupation matrix ns (before diag.):
       0.500  0.000  0.000
       0.000  0.500  0.000
       0.000  0.000  0.500
     ------------------------ ATOM   47 ------------------------
     Tr[ns( 47)] =   3.00000
     eigenvalues:
       0.500  0.500  0.500
     eigenvectors (columns):
       1.000  0.000  0.000
       0.000  1.000  0.000
       0.000  0.000  1.000
     occupation matrix ns (before diag.):
       0.500  0.000  0.000
       0.000  0.500  0.000
       0.000  0.000  0.500
     ------------------------ ATOM   48 ------------------------
     Tr[ns( 48)] =   3.00000
     eigenvalues:
       0.500  0.500  0.500
     eigenvectors (columns):
       1.000  0.000  0.000
       0.000  1.000  0.000
       0.000  0.000  1.000
     occupation matrix ns (before diag.):
       0.500  0.000  0.000
       0.000  0.500  0.000
       0.000  0.000  0.500
     ------------------------ ATOM   49 ------------------------
     Tr[ns( 49)] =   1.00000
     eigenvalues:
       0.167  0.167  0.167
     eigenvectors (columns):
       1.000  0.000  0.000
       0.000  1.000  0.000
       0.000  0.000  1.000
     occupation matrix ns (before diag.):
       0.167  0.000  0.000
       0.000  0.167  0.000
       0.000  0.000  0.167
     ------------------------ ATOM   50 ------------------------
     Tr[ns( 50)] =   1.00000
     eigenvalues:
       0.167  0.167  0.167
     eigenvectors (columns):
       1.000  0.000  0.000
       0.000  1.000  0.000
       0.000  0.000  1.000
     occupation matrix ns (before diag.):
       0.167  0.000  0.000
       0.000  0.167  0.000
       0.000  0.000  0.167
     ------------------------ ATOM   51 ------------------------
     Tr[ns( 51)] =   1.00000
     eigenvalues:
       0.167  0.167  0.167
     eigenvectors (columns):
       1.000  0.000  0.000
       0.000  1.000  0.000
       0.000  0.000  1.000
     occupation matrix ns (before diag.):
       0.167  0.000  0.000
       0.000  0.167  0.000
       0.000  0.000  0.167
     ------------------------ ATOM   52 ------------------------
     Tr[ns( 52)] =   1.00000
     eigenvalues:
       0.167  0.167  0.167
     eigenvectors (columns):
       1.000  0.000  0.000
       0.000  1.000  0.000
       0.000  0.000  1.000
     occupation matrix ns (before diag.):
       0.167  0.000  0.000
       0.000  0.167  0.000
       0.000  0.000  0.167
     ------------------------ ATOM   53 ------------------------
     Tr[ns( 53)] =   3.00000
     eigenvalues:
       0.500  0.500  0.500
     eigenvectors (columns):
       1.000  0.000  0.000
       0.000  1.000  0.000
       0.000  0.000  1.000
     occupation matrix ns (before diag.):
       0.500  0.000  0.000
       0.000  0.500  0.000
       0.000  0.000  0.500
     ------------------------ ATOM   54 ------------------------
     Tr[ns( 54)] =   3.00000
     eigenvalues:
       0.500  0.500  0.500
     eigenvectors (columns):
       1.000  0.000  0.000
       0.000  1.000  0.000
       0.000  0.000  1.000
     occupation matrix ns (before diag.):
       0.500  0.000  0.000
       0.000  0.500  0.000
       0.000  0.000  0.500
     ------------------------ ATOM   55 ------------------------
     Tr[ns( 55)] =   3.00000
     eigenvalues:
       0.500  0.500  0.500
     eigenvectors (columns):
       1.000  0.000  0.000
       0.000  1.000  0.000
       0.000  0.000  1.000
     occupation matrix ns (before diag.):
       0.500  0.000  0.000
       0.000  0.500  0.000
       0.000  0.000  0.500
     ------------------------ ATOM   56 ------------------------
     Tr[ns( 56)] =   3.00000
     eigenvalues:
       0.500  0.500  0.500
     eigenvectors (columns):
       1.000  0.000  0.000
       0.000  1.000  0.000
       0.000  0.000  1.000
     occupation matrix ns (before diag.):
       0.500  0.000  0.000
       0.000  0.500  0.000
       0.000  0.000  0.500
     ------------------------ ATOM   57 ------------------------
     Tr[ns( 57)] =   1.00000
     eigenvalues:
       0.167  0.167  0.167
     eigenvectors (columns):
       1.000  0.000  0.000
       0.000  1.000  0.000
       0.000  0.000  1.000
     occupation matrix ns (before diag.):
       0.167  0.000  0.000
       0.000  0.167  0.000
       0.000  0.000  0.167
     ------------------------ ATOM   58 ------------------------
     Tr[ns( 58)] =   1.00000
     eigenvalues:
       0.167  0.167  0.167
     eigenvectors (columns):
       1.000  0.000  0.000
       0.000  1.000  0.000
       0.000  0.000  1.000
     occupation matrix ns (before diag.):
       0.167  0.000  0.000
       0.000  0.167  0.000
       0.000  0.000  0.167
     ------------------------ ATOM   59 ------------------------
     Tr[ns( 59)] =   1.00000
     eigenvalues:
       0.167  0.167  0.167
     eigenvectors (columns):
       1.000  0.000  0.000
       0.000  1.000  0.000
       0.000  0.000  1.000
     occupation matrix ns (before diag.):
       0.167  0.000  0.000
       0.000  0.167  0.000
       0.000  0.000  0.167
     ------------------------ ATOM   60 ------------------------
     Tr[ns( 60)] =   1.00000
     eigenvalues:
       0.167  0.167  0.167
     eigenvectors (columns):
       1.000  0.000  0.000
       0.000  1.000  0.000
       0.000  0.000  1.000
     occupation matrix ns (before diag.):
       0.167  0.000  0.000
       0.000  0.167  0.000
       0.000  0.000  0.167
     ------------------------ ATOM   61 ------------------------
     Tr[ns( 61)] =   3.00000
     eigenvalues:
       0.500  0.500  0.500
     eigenvectors (columns):
       1.000  0.000  0.000
       0.000  1.000  0.000
       0.000  0.000  1.000
     occupation matrix ns (before diag.):
       0.500  0.000  0.000
       0.000  0.500  0.000
       0.000  0.000  0.500
     ------------------------ ATOM   62 ------------------------
     Tr[ns( 62)] =   3.00000
     eigenvalues:
       0.500  0.500  0.500
     eigenvectors (columns):
       1.000  0.000  0.000
       0.000  1.000  0.000
       0.000  0.000  1.000
     occupation matrix ns (before diag.):
       0.500  0.000  0.000
       0.000  0.500  0.000
       0.000  0.000  0.500
     ------------------------ ATOM   63 ------------------------
     Tr[ns( 63)] =   3.00000
     eigenvalues:
       0.500  0.500  0.500
     eigenvectors (columns):
       1.000  0.000  0.000
       0.000  1.000  0.000
       0.000  0.000  1.000
     occupation matrix ns (before diag.):
       0.500  0.000  0.000
       0.000  0.500  0.000
       0.000  0.000  0.500
     ------------------------ ATOM   64 ------------------------
     Tr[ns( 64)] =   3.00000
     eigenvalues:
       0.500  0.500  0.500
     eigenvectors (columns):
       1.000  0.000  0.000
       0.000  1.000  0.000
       0.000  0.000  1.000
     occupation matrix ns (before diag.):
       0.500  0.000  0.000
       0.000  0.500  0.000
       0.000  0.000  0.500
     ------------------------ ATOM   65 ------------------------
     Tr[ns( 65)] =   1.00000
     eigenvalues:
       0.167  0.167  0.167
     eigenvectors (columns):
       1.000  0.000  0.000
       0.000  1.000  0.000
       0.000  0.000  1.000
     occupation matrix ns (before diag.):
       0.167  0.000  0.000
       0.000  0.167  0.000
       0.000  0.000  0.167
     ------------------------ ATOM   66 ------------------------
     Tr[ns( 66)] =   1.00000
     eigenvalues:
       0.167  0.167  0.167
     eigenvectors (columns):
       1.000  0.000  0.000
       0.000  1.000  0.000
       0.000  0.000  1.000
     occupation matrix ns (before diag.):
       0.167  0.000  0.000
       0.000  0.167  0.000
       0.000  0.000  0.167
     ------------------------ ATOM   67 ------------------------
     Tr[ns( 67)] =   1.00000
     eigenvalues:
       0.167  0.167  0.167
     eigenvectors (columns):
       1.000  0.000  0.000
       0.000  1.000  0.000
       0.000  0.000  1.000
     occupation matrix ns (before diag.):
       0.167  0.000  0.000
       0.000  0.167  0.000
       0.000  0.000  0.167
     ------------------------ ATOM   68 ------------------------
     Tr[ns( 68)] =   1.00000
     eigenvalues:
       0.167  0.167  0.167
     eigenvectors (columns):
       1.000  0.000  0.000
       0.000  1.000  0.000
       0.000  0.000  1.000
     occupation matrix ns (before diag.):
       0.167  0.000  0.000
       0.000  0.167  0.000
       0.000  0.000  0.167
     ------------------------ ATOM   69 ------------------------
     Tr[ns( 69)] =   3.00000
     eigenvalues:
       0.500  0.500  0.500
     eigenvectors (columns):
       1.000  0.000  0.000
       0.000  1.000  0.000
       0.000  0.000  1.000
     occupation matrix ns (before diag.):
       0.500  0.000  0.000
       0.000  0.500  0.000
       0.000  0.000  0.500
     ------------------------ ATOM   70 ------------------------
     Tr[ns( 70)] =   3.00000
     eigenvalues:
       0.500  0.500  0.500
     eigenvectors (columns):
       1.000  0.000  0.000
       0.000  1.000  0.000
       0.000  0.000  1.000
     occupation matrix ns (before diag.):
       0.500  0.000  0.000
       0.000  0.500  0.000
       0.000  0.000  0.500
     ------------------------ ATOM   71 ------------------------
     Tr[ns( 71)] =   3.00000
     eigenvalues:
       0.500  0.500  0.500
     eigenvectors (columns):
       1.000  0.000  0.000
       0.000  1.000  0.000
       0.000  0.000  1.000
     occupation matrix ns (before diag.):
       0.500  0.000  0.000
       0.000  0.500  0.000
       0.000  0.000  0.500
     ------------------------ ATOM   72 ------------------------
     Tr[ns( 72)] =   3.00000
     eigenvalues:
       0.500  0.500  0.500
     eigenvectors (columns):
       1.000  0.000  0.000
       0.000  1.000  0.000
       0.000  0.000  1.000
     occupation matrix ns (before diag.):
       0.500  0.000  0.000
       0.000  0.500  0.000
       0.000  0.000  0.500
     ------------------------ ATOM   73 ------------------------
     Tr[ns( 73)] =   1.00000
     eigenvalues:
       0.167  0.167  0.167
     eigenvectors (columns):
       1.000  0.000  0.000
       0.000  1.000  0.000
       0.000  0.000  1.000
     occupation matrix ns (before diag.):
       0.167  0.000  0.000
       0.000  0.167  0.000
       0.000  0.000  0.167
     ------------------------ ATOM   74 ------------------------
     Tr[ns( 74)] =   1.00000
     eigenvalues:
       0.167  0.167  0.167
     eigenvectors (columns):
       1.000  0.000  0.000
       0.000  1.000  0.000
       0.000  0.000  1.000
     occupation matrix ns (before diag.):
       0.167  0.000  0.000
       0.000  0.167  0.000
       0.000  0.000  0.167
     ------------------------ ATOM   75 ------------------------
     Tr[ns( 75)] =   1.00000
     eigenvalues:
       0.167  0.167  0.167
     eigenvectors (columns):
       1.000  0.000  0.000
       0.000  1.000  0.000
       0.000  0.000  1.000
     occupation matrix ns (before diag.):
       0.167  0.000  0.000
       0.000  0.167  0.000
       0.000  0.000  0.167
     ------------------------ ATOM   76 ------------------------
     Tr[ns( 76)] =   1.00000
     eigenvalues:
       0.167  0.167  0.167
     eigenvectors (columns):
       1.000  0.000  0.000
       0.000  1.000  0.000
       0.000  0.000  1.000
     occupation matrix ns (before diag.):
       0.167  0.000  0.000
       0.000  0.167  0.000
       0.000  0.000  0.167
     ------------------------ ATOM   77 ------------------------
     Tr[ns( 77)] =   3.00000
     eigenvalues:
       0.500  0.500  0.500
     eigenvectors (columns):
       1.000  0.000  0.000
       0.000  1.000  0.000
       0.000  0.000  1.000
     occupation matrix ns (before diag.):
       0.500  0.000  0.000
       0.000  0.500  0.000
       0.000  0.000  0.500
     ------------------------ ATOM   78 ------------------------
     Tr[ns( 78)] =   3.00000
     eigenvalues:
       0.500  0.500  0.500
     eigenvectors (columns):
       1.000  0.000  0.000
       0.000  1.000  0.000
       0.000  0.000  1.000
     occupation matrix ns (before diag.):
       0.500  0.000  0.000
       0.000  0.500  0.000
       0.000  0.000  0.500
     ------------------------ ATOM   79 ------------------------
     Tr[ns( 79)] =   3.00000
     eigenvalues:
       0.500  0.500  0.500
     eigenvectors (columns):
       1.000  0.000  0.000
       0.000  1.000  0.000
       0.000  0.000  1.000
     occupation matrix ns (before diag.):
       0.500  0.000  0.000
       0.000  0.500  0.000
       0.000  0.000  0.500
     ------------------------ ATOM   80 ------------------------
     Tr[ns( 80)] =   3.00000
     eigenvalues:
       0.500  0.500  0.500
     eigenvectors (columns):
       1.000  0.000  0.000
       0.000  1.000  0.000
       0.000  0.000  1.000
     occupation matrix ns (before diag.):
       0.500  0.000  0.000
       0.000  0.500  0.000
       0.000  0.000  0.500
     ------------------------ ATOM   81 ------------------------
     Tr[ns( 81)] =   1.00000
     eigenvalues:
       0.167  0.167  0.167
     eigenvectors (columns):
       1.000  0.000  0.000
       0.000  1.000  0.000
       0.000  0.000  1.000
     occupation matrix ns (before diag.):
       0.167  0.000  0.000
       0.000  0.167  0.000
       0.000  0.000  0.167
     ------------------------ ATOM   82 ------------------------
     Tr[ns( 82)] =   1.00000
     eigenvalues:
       0.167  0.167  0.167
     eigenvectors (columns):
       1.000  0.000  0.000
       0.000  1.000  0.000
       0.000  0.000  1.000
     occupation matrix ns (before diag.):
       0.167  0.000  0.000
       0.000  0.167  0.000
       0.000  0.000  0.167
     ------------------------ ATOM   83 ------------------------
     Tr[ns( 83)] =   1.00000
     eigenvalues:
       0.167  0.167  0.167
     eigenvectors (columns):
       1.000  0.000  0.000
       0.000  1.000  0.000
       0.000  0.000  1.000
     occupation matrix ns (before diag.):
       0.167  0.000  0.000
       0.000  0.167  0.000
       0.000  0.000  0.167
     ------------------------ ATOM   84 ------------------------
     Tr[ns( 84)] =   1.00000
     eigenvalues:
       0.167  0.167  0.167
     eigenvectors (columns):
       1.000  0.000  0.000
       0.000  1.000  0.000
       0.000  0.000  1.000
     occupation matrix ns (before diag.):
       0.167  0.000  0.000
       0.000  0.167  0.000
       0.000  0.000  0.167
     ------------------------ ATOM   85 ------------------------
     Tr[ns( 85)] =   3.00000
     eigenvalues:
       0.500  0.500  0.500
     eigenvectors (columns):
       1.000  0.000  0.000
       0.000  1.000  0.000
       0.000  0.000  1.000
     occupation matrix ns (before diag.):
       0.500  0.000  0.000
       0.000  0.500  0.000
       0.000  0.000  0.500
     ------------------------ ATOM   86 ------------------------
     Tr[ns( 86)] =   3.00000
     eigenvalues:
       0.500  0.500  0.500
     eigenvectors (columns):
       1.000  0.000  0.000
       0.000  1.000  0.000
       0.000  0.000  1.000
     occupation matrix ns (before diag.):
       0.500  0.000  0.000
       0.000  0.500  0.000
       0.000  0.000  0.500
     ------------------------ ATOM   87 ------------------------
     Tr[ns( 87)] =   3.00000
     eigenvalues:
       0.500  0.500  0.500
     eigenvectors (columns):
       1.000  0.000  0.000
       0.000  1.000  0.000
       0.000  0.000  1.000
     occupation matrix ns (before diag.):
       0.500  0.000  0.000
       0.000  0.500  0.000
       0.000  0.000  0.500
     ------------------------ ATOM   88 ------------------------
     Tr[ns( 88)] =   3.00000
     eigenvalues:
       0.500  0.500  0.500
     eigenvectors (columns):
       1.000  0.000  0.000
       0.000  1.000  0.000
       0.000  0.000  1.000
     occupation matrix ns (before diag.):
       0.500  0.000  0.000
       0.000  0.500  0.000
       0.000  0.000  0.500
     ------------------------ ATOM   89 ------------------------
     Tr[ns( 89)] =   1.00000
     eigenvalues:
       0.167  0.167  0.167
     eigenvectors (columns):
       1.000  0.000  0.000
       0.000  1.000  0.000
       0.000  0.000  1.000
     occupation matrix ns (before diag.):
       0.167  0.000  0.000
       0.000  0.167  0.000
       0.000  0.000  0.167
     ------------------------ ATOM   90 ------------------------
     Tr[ns( 90)] =   1.00000
     eigenvalues:
       0.167  0.167  0.167
     eigenvectors (columns):
       1.000  0.000  0.000
       0.000  1.000  0.000
       0.000  0.000  1.000
     occupation matrix ns (before diag.):
       0.167  0.000  0.000
       0.000  0.167  0.000
       0.000  0.000  0.167
     ------------------------ ATOM   91 ------------------------
     Tr[ns( 91)] =   1.00000
     eigenvalues:
       0.167  0.167  0.167
     eigenvectors (columns):
       1.000  0.000  0.000
       0.000  1.000  0.000
       0.000  0.000  1.000
     occupation matrix ns (before diag.):
       0.167  0.000  0.000
       0.000  0.167  0.000
       0.000  0.000  0.167
     ------------------------ ATOM   92 ------------------------
     Tr[ns( 92)] =   1.00000
     eigenvalues:
       0.167  0.167  0.167
     eigenvectors (columns):
       1.000  0.000  0.000
       0.000  1.000  0.000
       0.000  0.000  1.000
     occupation matrix ns (before diag.):
       0.167  0.000  0.000
       0.000  0.167  0.000
       0.000  0.000  0.167
     ------------------------ ATOM   93 ------------------------
     Tr[ns( 93)] =   3.00000
     eigenvalues:
       0.500  0.500  0.500
     eigenvectors (columns):
       1.000  0.000  0.000
       0.000  1.000  0.000
       0.000  0.000  1.000
     occupation matrix ns (before diag.):
       0.500  0.000  0.000
       0.000  0.500  0.000
       0.000  0.000  0.500
     ------------------------ ATOM   94 ------------------------
     Tr[ns( 94)] =   3.00000
     eigenvalues:
       0.500  0.500  0.500
     eigenvectors (columns):
       1.000  0.000  0.000
       0.000  1.000  0.000
       0.000  0.000  1.000
     occupation matrix ns (before diag.):
       0.500  0.000  0.000
       0.000  0.500  0.000
       0.000  0.000  0.500
     ------------------------ ATOM   95 ------------------------
     Tr[ns( 95)] =   3.00000
     eigenvalues:
       0.500  0.500  0.500
     eigenvectors (columns):
       1.000  0.000  0.000
       0.000  1.000  0.000
       0.000  0.000  1.000
     occupation matrix ns (before diag.):
       0.500  0.000  0.000
       0.000  0.500  0.000
       0.000  0.000  0.500
     ------------------------ ATOM   96 ------------------------
     Tr[ns( 96)] =   3.00000
     eigenvalues:
       0.500  0.500  0.500
     eigenvectors (columns):
       1.000  0.000  0.000
       0.000  1.000  0.000
       0.000  0.000  1.000
     occupation matrix ns (before diag.):
       0.500  0.000  0.000
       0.000  0.500  0.000
       0.000  0.000  0.500
     ------------------------ ATOM   97 ------------------------
     Tr[ns( 97)] =   1.00000
     eigenvalues:
       0.167  0.167  0.167
     eigenvectors (columns):
       1.000  0.000  0.000
       0.000  1.000  0.000
       0.000  0.000  1.000
     occupation matrix ns (before diag.):
       0.167  0.000  0.000
       0.000  0.167  0.000
       0.000  0.000  0.167
     ------------------------ ATOM   98 ------------------------
     Tr[ns( 98)] =   1.00000
     eigenvalues:
       0.167  0.167  0.167
     eigenvectors (columns):
       1.000  0.000  0.000
       0.000  1.000  0.000
       0.000  0.000  1.000
     occupation matrix ns (before diag.):
       0.167  0.000  0.000
       0.000  0.167  0.000
       0.000  0.000  0.167
     ------------------------ ATOM   99 ------------------------
     Tr[ns( 99)] =   1.00000
     eigenvalues:
       0.167  0.167  0.167
     eigenvectors (columns):
       1.000  0.000  0.000
       0.000  1.000  0.000
       0.000  0.000  1.000
     occupation matrix ns (before diag.):
       0.167  0.000  0.000
       0.000  0.167  0.000
       0.000  0.000  0.167
     ------------------------ ATOM  100 ------------------------
     Tr[ns(100)] =   1.00000
     eigenvalues:
       0.167  0.167  0.167
     eigenvectors (columns):
       1.000  0.000  0.000
       0.000  1.000  0.000
       0.000  0.000  1.000
     occupation matrix ns (before diag.):
       0.167  0.000  0.000
       0.000  0.167  0.000
       0.000  0.000  0.167
     ------------------------ ATOM  101 ------------------------
     Tr[ns(101)] =   3.00000
     eigenvalues:
       0.500  0.500  0.500
     eigenvectors (columns):
       1.000  0.000  0.000
       0.000  1.000  0.000
       0.000  0.000  1.000
     occupation matrix ns (before diag.):
       0.500  0.000  0.000
       0.000  0.500  0.000
       0.000  0.000  0.500
     ------------------------ ATOM  102 ------------------------
     Tr[ns(102)] =   3.00000
     eigenvalues:
       0.500  0.500  0.500
     eigenvectors (columns):
       1.000  0.000  0.000
       0.000  1.000  0.000
       0.000  0.000  1.000
     occupation matrix ns (before diag.):
       0.500  0.000  0.000
       0.000  0.500  0.000
       0.000  0.000  0.500
     ------------------------ ATOM  103 ------------------------
     Tr[ns(103)] =   3.00000
     eigenvalues:
       0.500  0.500  0.500
     eigenvectors (columns):
       1.000  0.000  0.000
       0.000  1.000  0.000
       0.000  0.000  1.000
     occupation matrix ns (before diag.):
       0.500  0.000  0.000
       0.000  0.500  0.000
       0.000  0.000  0.500
     ------------------------ ATOM  104 ------------------------
     Tr[ns(104)] =   3.00000
     eigenvalues:
       0.500  0.500  0.500
     eigenvectors (columns):
       1.000  0.000  0.000
       0.000  1.000  0.000
       0.000  0.000  1.000
     occupation matrix ns (before diag.):
       0.500  0.000  0.000
       0.000  0.500  0.000
       0.000  0.000  0.500
     ------------------------ ATOM  105 ------------------------
     Tr[ns(105)] =   1.00000
     eigenvalues:
       0.167  0.167  0.167
     eigenvectors (columns):
       1.000  0.000  0.000
       0.000  1.000  0.000
       0.000  0.000  1.000
     occupation matrix ns (before diag.):
       0.167  0.000  0.000
       0.000  0.167  0.000
       0.000  0.000  0.167
     ------------------------ ATOM  106 ------------------------
     Tr[ns(106)] =   1.00000
     eigenvalues:
       0.167  0.167  0.167
     eigenvectors (columns):
       1.000  0.000  0.000
       0.000  1.000  0.000
       0.000  0.000  1.000
     occupation matrix ns (before diag.):
       0.167  0.000  0.000
       0.000  0.167  0.000
       0.000  0.000  0.167
     ------------------------ ATOM  107 ------------------------
     Tr[ns(107)] =   1.00000
     eigenvalues:
       0.167  0.167  0.167
     eigenvectors (columns):
       1.000  0.000  0.000
       0.000  1.000  0.000
       0.000  0.000  1.000
     occupation matrix ns (before diag.):
       0.167  0.000  0.000
       0.000  0.167  0.000
       0.000  0.000  0.167
     ------------------------ ATOM  108 ------------------------
     Tr[ns(108)] =   1.00000
     eigenvalues:
       0.167  0.167  0.167
     eigenvectors (columns):
       1.000  0.000  0.000
       0.000  1.000  0.000
       0.000  0.000  1.000
     occupation matrix ns (before diag.):
       0.167  0.000  0.000
       0.000  0.167  0.000
       0.000  0.000  0.167
     ------------------------ ATOM  109 ------------------------
     Tr[ns(109)] =   3.00000
     eigenvalues:
       0.500  0.500  0.500
     eigenvectors (columns):
       1.000  0.000  0.000
       0.000  1.000  0.000
       0.000  0.000  1.000
     occupation matrix ns (before diag.):
       0.500  0.000  0.000
       0.000  0.500  0.000
       0.000  0.000  0.500
     ------------------------ ATOM  110 ------------------------
     Tr[ns(110)] =   3.00000
     eigenvalues:
       0.500  0.500  0.500
     eigenvectors (columns):
       1.000  0.000  0.000
       0.000  1.000  0.000
       0.000  0.000  1.000
     occupation matrix ns (before diag.):
       0.500  0.000  0.000
       0.000  0.500  0.000
       0.000  0.000  0.500
     ------------------------ ATOM  111 ------------------------
     Tr[ns(111)] =   3.00000
     eigenvalues:
       0.500  0.500  0.500
     eigenvectors (columns):
       1.000  0.000  0.000
       0.000  1.000  0.000
       0.000  0.000  1.000
     occupation matrix ns (before diag.):
       0.500  0.000  0.000
       0.000  0.500  0.000
       0.000  0.000  0.500
     ------------------------ ATOM  112 ------------------------
     Tr[ns(112)] =   3.00000
     eigenvalues:
       0.500  0.500  0.500
     eigenvectors (columns):
       1.000  0.000  0.000
       0.000  1.000  0.000
       0.000  0.000  1.000
     occupation matrix ns (before diag.):
       0.500  0.000  0.000
       0.000  0.500  0.000
       0.000  0.000  0.500
     ------------------------ ATOM  113 ------------------------
     Tr[ns(113)] =   1.00000
     eigenvalues:
       0.167  0.167  0.167
     eigenvectors (columns):
       1.000  0.000  0.000
       0.000  1.000  0.000
       0.000  0.000  1.000
     occupation matrix ns (before diag.):
       0.167  0.000  0.000
       0.000  0.167  0.000
       0.000  0.000  0.167
     ------------------------ ATOM  114 ------------------------
     Tr[ns(114)] =   1.00000
     eigenvalues:
       0.167  0.167  0.167
     eigenvectors (columns):
       1.000  0.000  0.000
       0.000  1.000  0.000
       0.000  0.000  1.000
     occupation matrix ns (before diag.):
       0.167  0.000  0.000
       0.000  0.167  0.000
       0.000  0.000  0.167
     ------------------------ ATOM  115 ------------------------
     Tr[ns(115)] =   1.00000
     eigenvalues:
       0.167  0.167  0.167
     eigenvectors (columns):
       1.000  0.000  0.000
       0.000  1.000  0.000
       0.000  0.000  1.000
     occupation matrix ns (before diag.):
       0.167  0.000  0.000
       0.000  0.167  0.000
       0.000  0.000  0.167
     ------------------------ ATOM  116 ------------------------
     Tr[ns(116)] =   1.00000
     eigenvalues:
       0.167  0.167  0.167
     eigenvectors (columns):
       1.000  0.000  0.000
       0.000  1.000  0.000
       0.000  0.000  1.000
     occupation matrix ns (before diag.):
       0.167  0.000  0.000
       0.000  0.167  0.000
       0.000  0.000  0.167
     ------------------------ ATOM  117 ------------------------
     Tr[ns(117)] =   3.00000
     eigenvalues:
       0.500  0.500  0.500
     eigenvectors (columns):
       1.000  0.000  0.000
       0.000  1.000  0.000
       0.000  0.000  1.000
     occupation matrix ns (before diag.):
       0.500  0.000  0.000
       0.000  0.500  0.000
       0.000  0.000  0.500
     ------------------------ ATOM  118 ------------------------
     Tr[ns(118)] =   3.00000
     eigenvalues:
       0.500  0.500  0.500
     eigenvectors (columns):
       1.000  0.000  0.000
       0.000  1.000  0.000
       0.000  0.000  1.000
     occupation matrix ns (before diag.):
       0.500  0.000  0.000
       0.000  0.500  0.000
       0.000  0.000  0.500
     ------------------------ ATOM  119 ------------------------
     Tr[ns(119)] =   3.00000
     eigenvalues:
       0.500  0.500  0.500
     eigenvectors (columns):
       1.000  0.000  0.000
       0.000  1.000  0.000
       0.000  0.000  1.000
     occupation matrix ns (before diag.):
       0.500  0.000  0.000
       0.000  0.500  0.000
       0.000  0.000  0.500
     ------------------------ ATOM  120 ------------------------
     Tr[ns(120)] =   3.00000
     eigenvalues:
       0.500  0.500  0.500
     eigenvectors (columns):
       1.000  0.000  0.000
       0.000  1.000  0.000
       0.000  0.000  1.000
     occupation matrix ns (before diag.):
       0.500  0.000  0.000
       0.000  0.500  0.000
       0.000  0.000  0.500
     ------------------------ ATOM  121 ------------------------
     Tr[ns(121)] =   1.00000
     eigenvalues:
       0.167  0.167  0.167
     eigenvectors (columns):
       1.000  0.000  0.000
       0.000  1.000  0.000
       0.000  0.000  1.000
     occupation matrix ns (before diag.):
       0.167  0.000  0.000
       0.000  0.167  0.000
       0.000  0.000  0.167
     ------------------------ ATOM  122 ------------------------
     Tr[ns(122)] =   1.00000
     eigenvalues:
       0.167  0.167  0.167
     eigenvectors (columns):
       1.000  0.000  0.000
       0.000  1.000  0.000
       0.000  0.000  1.000
     occupation matrix ns (before diag.):
       0.167  0.000  0.000
       0.000  0.167  0.000
       0.000  0.000  0.167
     ------------------------ ATOM  123 ------------------------
     Tr[ns(123)] =   1.00000
     eigenvalues:
       0.167  0.167  0.167
     eigenvectors (columns):
       1.000  0.000  0.000
       0.000  1.000  0.000
       0.000  0.000  1.000
     occupation matrix ns (before diag.):
       0.167  0.000  0.000
       0.000  0.167  0.000
       0.000  0.000  0.167
     ------------------------ ATOM  124 ------------------------
     Tr[ns(124)] =   1.00000
     eigenvalues:
       0.167  0.167  0.167
     eigenvectors (columns):
       1.000  0.000  0.000
       0.000  1.000  0.000
       0.000  0.000  1.000
     occupation matrix ns (before diag.):
       0.167  0.000  0.000
       0.000  0.167  0.000
       0.000  0.000  0.167
     ------------------------ ATOM  125 ------------------------
     Tr[ns(125)] =   3.00000
     eigenvalues:
       0.500  0.500  0.500
     eigenvectors (columns):
       1.000  0.000  0.000
       0.000  1.000  0.000
       0.000  0.000  1.000
     occupation matrix ns (before diag.):
       0.500  0.000  0.000
       0.000  0.500  0.000
       0.000  0.000  0.500
     ------------------------ ATOM  126 ------------------------
     Tr[ns(126)] =   3.00000
     eigenvalues:
       0.500  0.500  0.500
     eigenvectors (columns):
       1.000  0.000  0.000
       0.000  1.000  0.000
       0.000  0.000  1.000
     occupation matrix ns (before diag.):
       0.500  0.000  0.000
       0.000  0.500  0.000
       0.000  0.000  0.500
     ------------------------ ATOM  127 ------------------------
     Tr[ns(127)] =   3.00000
     eigenvalues:
       0.500  0.500  0.500
     eigenvectors (columns):
       1.000  0.000  0.000
       0.000  1.000  0.000
       0.000  0.000  1.000
     occupation matrix ns (before diag.):
       0.500  0.000  0.000
       0.000  0.500  0.000
       0.000  0.000  0.500
     ------------------------ ATOM  128 ------------------------
     Tr[ns(128)] =   3.00000
     eigenvalues:
       0.500  0.500  0.500
     eigenvectors (columns):
       1.000  0.000  0.000
       0.000  1.000  0.000
       0.000  0.000  1.000
     occupation matrix ns (before diag.):
       0.500  0.000  0.000
       0.000  0.500  0.000
       0.000  0.000  0.500
     ------------------------ ATOM  129 ------------------------
     Tr[ns(129)] =   1.00000
     eigenvalues:
       0.167  0.167  0.167
     eigenvectors (columns):
       1.000  0.000  0.000
       0.000  1.000  0.000
       0.000  0.000  1.000
     occupation matrix ns (before diag.):
       0.167  0.000  0.000
       0.000  0.167  0.000
       0.000  0.000  0.167
     ------------------------ ATOM  130 ------------------------
     Tr[ns(130)] =   1.00000
     eigenvalues:
       0.167  0.167  0.167
     eigenvectors (columns):
       1.000  0.000  0.000
       0.000  1.000  0.000
       0.000  0.000  1.000
     occupation matrix ns (before diag.):
       0.167  0.000  0.000
       0.000  0.167  0.000
       0.000  0.000  0.167
     ------------------------ ATOM  131 ------------------------
     Tr[ns(131)] =   1.00000
     eigenvalues:
       0.167  0.167  0.167
     eigenvectors (columns):
       1.000  0.000  0.000
       0.000  1.000  0.000
       0.000  0.000  1.000
     occupation matrix ns (before diag.):
       0.167  0.000  0.000
       0.000  0.167  0.000
       0.000  0.000  0.167
     ------------------------ ATOM  132 ------------------------
     Tr[ns(132)] =   1.00000
     eigenvalues:
       0.167  0.167  0.167
     eigenvectors (columns):
       1.000  0.000  0.000
       0.000  1.000  0.000
       0.000  0.000  1.000
     occupation matrix ns (before diag.):
       0.167  0.000  0.000
       0.000  0.167  0.000
       0.000  0.000  0.167
     ------------------------ ATOM  133 ------------------------
     Tr[ns(133)] =   3.00000
     eigenvalues:
       0.500  0.500  0.500
     eigenvectors (columns):
       1.000  0.000  0.000
       0.000  1.000  0.000
       0.000  0.000  1.000
     occupation matrix ns (before diag.):
       0.500  0.000  0.000
       0.000  0.500  0.000
       0.000  0.000  0.500
     ------------------------ ATOM  134 ------------------------
     Tr[ns(134)] =   3.00000
     eigenvalues:
       0.500  0.500  0.500
     eigenvectors (columns):
       1.000  0.000  0.000
       0.000  1.000  0.000
       0.000  0.000  1.000
     occupation matrix ns (before diag.):
       0.500  0.000  0.000
       0.000  0.500  0.000
       0.000  0.000  0.500
     ------------------------ ATOM  135 ------------------------
     Tr[ns(135)] =   3.00000
     eigenvalues:
       0.500  0.500  0.500
     eigenvectors (columns):
       1.000  0.000  0.000
       0.000  1.000  0.000
       0.000  0.000  1.000
     occupation matrix ns (before diag.):
       0.500  0.000  0.000
       0.000  0.500  0.000
       0.000  0.000  0.500
     ------------------------ ATOM  136 ------------------------
     Tr[ns(136)] =   3.00000
     eigenvalues:
       0.500  0.500  0.500
     eigenvectors (columns):
       1.000  0.000  0.000
       0.000  1.000  0.000
       0.000  0.000  1.000
     occupation matrix ns (before diag.):
       0.500  0.000  0.000
       0.000  0.500  0.000
       0.000  0.000  0.500
     ------------------------ ATOM  137 ------------------------
     Tr[ns(137)] =   1.00000
     eigenvalues:
       0.167  0.167  0.167
     eigenvectors (columns):
       1.000  0.000  0.000
       0.000  1.000  0.000
       0.000  0.000  1.000
     occupation matrix ns (before diag.):
       0.167  0.000  0.000
       0.000  0.167  0.000
       0.000  0.000  0.167
     ------------------------ ATOM  138 ------------------------
     Tr[ns(138)] =   1.00000
     eigenvalues:
       0.167  0.167  0.167
     eigenvectors (columns):
       1.000  0.000  0.000
       0.000  1.000  0.000
       0.000  0.000  1.000
     occupation matrix ns (before diag.):
       0.167  0.000  0.000
       0.000  0.167  0.000
       0.000  0.000  0.167
     ------------------------ ATOM  139 ------------------------
     Tr[ns(139)] =   1.00000
     eigenvalues:
       0.167  0.167  0.167
     eigenvectors (columns):
       1.000  0.000  0.000
       0.000  1.000  0.000
       0.000  0.000  1.000
     occupation matrix ns (before diag.):
       0.167  0.000  0.000
       0.000  0.167  0.000
       0.000  0.000  0.167
     ------------------------ ATOM  140 ------------------------
     Tr[ns(140)] =   1.00000
     eigenvalues:
       0.167  0.167  0.167
     eigenvectors (columns):
       1.000  0.000  0.000
       0.000  1.000  0.000
       0.000  0.000  1.000
     occupation matrix ns (before diag.):
       0.167  0.000  0.000
       0.000  0.167  0.000
       0.000  0.000  0.167
     ------------------------ ATOM  141 ------------------------
     Tr[ns(141)] =   3.00000
     eigenvalues:
       0.500  0.500  0.500
     eigenvectors (columns):
       1.000  0.000  0.000
       0.000  1.000  0.000
       0.000  0.000  1.000
     occupation matrix ns (before diag.):
       0.500  0.000  0.000
       0.000  0.500  0.000
       0.000  0.000  0.500
     ------------------------ ATOM  142 ------------------------
     Tr[ns(142)] =   3.00000
     eigenvalues:
       0.500  0.500  0.500
     eigenvectors (columns):
       1.000  0.000  0.000
       0.000  1.000  0.000
       0.000  0.000  1.000
     occupation matrix ns (before diag.):
       0.500  0.000  0.000
       0.000  0.500  0.000
       0.000  0.000  0.500
     ------------------------ ATOM  143 ------------------------
     Tr[ns(143)] =   3.00000
     eigenvalues:
       0.500  0.500  0.500
     eigenvectors (columns):
       1.000  0.000  0.000
       0.000  1.000  0.000
       0.000  0.000  1.000
     occupation matrix ns (before diag.):
       0.500  0.000  0.000
       0.000  0.500  0.000
       0.000  0.000  0.500
     ------------------------ ATOM  144 ------------------------
     Tr[ns(144)] =   3.00000
     eigenvalues:
       0.500  0.500  0.500
     eigenvectors (columns):
       1.000  0.000  0.000
       0.000  1.000  0.000
       0.000  0.000  1.000
     occupation matrix ns (before diag.):
       0.500  0.000  0.000
       0.000  0.500  0.000
       0.000  0.000  0.500
     ------------------------ ATOM  145 ------------------------
     Tr[ns(145)] =   1.00000
     eigenvalues:
       0.167  0.167  0.167
     eigenvectors (columns):
       1.000  0.000  0.000
       0.000  1.000  0.000
       0.000  0.000  1.000
     occupation matrix ns (before diag.):
       0.167  0.000  0.000
       0.000  0.167  0.000
       0.000  0.000  0.167
     ------------------------ ATOM  146 ------------------------
     Tr[ns(146)] =   1.00000
     eigenvalues:
       0.167  0.167  0.167
     eigenvectors (columns):
       1.000  0.000  0.000
       0.000  1.000  0.000
       0.000  0.000  1.000
     occupation matrix ns (before diag.):
       0.167  0.000  0.000
       0.000  0.167  0.000
       0.000  0.000  0.167
     ------------------------ ATOM  147 ------------------------
     Tr[ns(147)] =   1.00000
     eigenvalues:
       0.167  0.167  0.167
     eigenvectors (columns):
       1.000  0.000  0.000
       0.000  1.000  0.000
       0.000  0.000  1.000
     occupation matrix ns (before diag.):
       0.167  0.000  0.000
       0.000  0.167  0.000
       0.000  0.000  0.167
     ------------------------ ATOM  148 ------------------------
     Tr[ns(148)] =   1.00000
     eigenvalues:
       0.167  0.167  0.167
     eigenvectors (columns):
       1.000  0.000  0.000
       0.000  1.000  0.000
       0.000  0.000  1.000
     occupation matrix ns (before diag.):
       0.167  0.000  0.000
       0.000  0.167  0.000
       0.000  0.000  0.167
     ------------------------ ATOM  149 ------------------------
     Tr[ns(149)] =   3.00000
     eigenvalues:
       0.500  0.500  0.500
     eigenvectors (columns):
       1.000  0.000  0.000
       0.000  1.000  0.000
       0.000  0.000  1.000
     occupation matrix ns (before diag.):
       0.500  0.000  0.000
       0.000  0.500  0.000
       0.000  0.000  0.500
     ------------------------ ATOM  150 ------------------------
     Tr[ns(150)] =   3.00000
     eigenvalues:
       0.500  0.500  0.500
     eigenvectors (columns):
       1.000  0.000  0.000
       0.000  1.000  0.000
       0.000  0.000  1.000
     occupation matrix ns (before diag.):
       0.500  0.000  0.000
       0.000  0.500  0.000
       0.000  0.000  0.500
     ------------------------ ATOM  151 ------------------------
     Tr[ns(151)] =   3.00000
     eigenvalues:
       0.500  0.500  0.500
     eigenvectors (columns):
       1.000  0.000  0.000
       0.000  1.000  0.000
       0.000  0.000  1.000
     occupation matrix ns (before diag.):
       0.500  0.000  0.000
       0.000  0.500  0.000
       0.000  0.000  0.500
     ------------------------ ATOM  152 ------------------------
[...]
   -25.8982 -25.8982 -25.8982 -25.8982 -25.8981 -25.8981 -25.8978 -25.8978
   -25.8971 -25.8971 -25.8969 -25.8966 -25.8964 -25.8964 -25.8963 -25.8960
   -25.8960 -25.8958 -25.8957 -25.8955 -25.8952 -25.8950 -25.8950 -25.8946
   -25.8944 -25.8942 -25.8937 -25.8937 -25.8935 -25.8933 -25.8931 -25.8928
   -25.8928 -25.8926 -25.8925 -25.8922 -25.8920 -25.8918 -25.8915 -25.8911
   -25.8908 -25.8906 -25.8904 -25.8901 -25.8897 -25.8896 -25.8888 -25.8885
   -25.8878 -25.8878 -25.8870 -25.8862 -25.8853 -25.8839 -25.8830 -25.8824
   -25.8824 -25.8815 -25.8814 -25.8812 -25.8803 -25.8799 -25.8796 -25.8795
   -25.8762 -25.8751 -25.8728 -25.8724 -25.8724 -19.4033 -19.4016 -19.3977
   -19.3792 -19.3754 -19.3659 -19.3649 -19.3631 -19.3582 -19.3578 -19.3559
   -19.3545 -19.3540 -19.3539 -19.3537 -19.3531 -19.3530 -19.3496 -19.3495
   -19.3492 -19.3474 -19.3450 -19.3440 -19.3437 -19.3437 -19.3427 -19.3423
   -19.3422 -19.3421 -19.3410 -19.3399 -19.3398 -19.3395 -19.3393 -19.3391
   -19.3383 -19.3380 -19.3379 -19.3365 -19.3362 -19.3361 -19.3357 -19.3350
   -19.3344 -19.3340 -19.3338 -19.3337 -19.3335 -19.3327 -19.3323 -19.3321
   -19.3320 -19.3318 -19.3315 -19.3313 -19.3300 -19.3299 -19.3297 -19.3297
   -19.3295 -19.3291 -19.3289 -19.3280 -19.3279 -19.3272 -19.3267 -19.3267
   -19.3264 -19.3259 -19.3257 -19.3254 -19.3254 -19.3251 -19.3247 -19.3244
   -19.3242 -19.3239 -19.3237 -19.3233 -19.3224 -19.3223 -19.3223 -19.3222
   -19.3220 -19.3218 -19.3204 -19.3193 -19.3187 -19.3185 -19.3184 -19.3172
   -19.3155 -19.3152 -19.3147 -19.3146 -19.3142 -19.3138 -19.3138 -19.3136
   -19.3133 -19.3130 -19.3126 -19.3123 -19.3112 -19.3107 -19.3096 -19.3094
   -19.3088 -19.3087 -19.3072 -19.3055 -19.3052 -19.3050 -19.3049 -19.3038
   -19.3036 -19.3032 -19.3026 -19.3022 -19.3021 -19.3009 -19.3001 -19.3000
   -19.2990 -19.2987 -19.2983 -19.2980 -19.2977 -19.2958 -19.2920 -19.2920
   -19.2907 -19.2877 -19.2861 -19.2837  -7.2308  -7.2289  -7.2261  -7.2223
    -7.2158  -7.2152  -7.2139  -7.2136  -7.2115  -7.2103  -7.2078  -7.2065
    -7.2037  -7.2028  -7.2025  -7.2022  -7.2005  -7.1995  -7.1975  -7.1972
    -7.1965  -7.1960  -7.1958  -7.1942  -7.1938  -7.1928  -7.1922  -7.1905
    -7.1897  -7.1894  -7.1889  -7.1874  -7.1872  -7.1861  -7.1850  -7.1835
    -7.1829  -7.1820  -7.1815  -7.1812  -7.1805  -7.1798  -7.1784  -7.1780
    -7.1778  -7.1773  -7.1767  -7.1760  -7.1749  -7.1745  -7.1742  -7.1738
    -7.1734  -7.1727  -7.1721  -7.1718  -7.1711  -7.1707  -7.1703  -7.1697
    -7.1688  -7.1686  -7.1675  -7.1662  -7.1659  -7.1656  -7.1653  -7.1648
    -7.1644  -7.1634  -7.1631  -7.1627  -7.1623  -7.1616  -7.1612  -7.1607
    -7.1599  -7.1596  -7.1587  -7.1576  -7.1570  -7.1566  -7.1560  -7.1550
    -7.1547  -7.1545  -7.1540  -7.1535  -7.1528  -7.1524  -7.1520  -7.1515
    -7.1506  -7.1504  -7.1495  -7.1485  -7.1483  -7.1481  -7.1478  -7.1472
    -7.1466  -7.1464  -7.1461  -7.1455  -7.1454  -7.1453  -7.1449  -7.1444
    -7.1440  -7.1434  -7.1430  -7.1428  -7.1417  -7.1411  -7.1405  -7.1400
    -7.1392  -7.1388  -7.1382  -7.1381  -7.1378  -7.1373  -7.1367  -7.1360
    -7.1355  -7.1349  -7.1347  -7.1344  -7.1337  -7.1335  -7.1333  -7.1327
    -7.1321  -7.1321  -7.1310  -7.1308  -7.1304  -7.1303  -7.1300  -7.1298
    -7.1293  -7.1292  -7.1287  -7.1284  -7.1283  -7.1279  -7.1276  -7.1274
    -7.1266  -7.1263  -7.1260  -7.1257  -7.1252  -7.1251  -7.1247  -7.1244
    -7.1241  -7.1232  -7.1226  -7.1224  -7.1220  -7.1217  -7.1214  -7.1209
    -7.1207  -7.1203  -7.1198  -7.1189  -7.1188  -7.1183  -7.1181  -7.1179
    -7.1177  -7.1173  -7.1166  -7.1164  -7.1161  -7.1157  -7.1152  -7.1147
    -7.1146  -7.1141  -7.1138  -7.1135  -7.1130  -7.1126  -7.1121  -7.1118
    -7.1114  -7.1106  -7.1104  -7.1102  -7.1097  -7.1089  -7.1086  -7.1082
    -7.1079  -7.1071  -7.1069  -7.1061  -7.1055  -7.1054  -7.1051  -7.1045
    -7.1040  -7.1037  -7.1034  -7.1030  -7.1027  -7.1018  -7.1017  -7.1015
    -7.1011  -7.1007  -7.1005  -7.0998  -7.0995  -7.0984  -7.0981  -7.0974
    -7.0971  -7.0968  -7.0966  -7.0961  -7.0958  -7.0957  -7.0950  -7.0946
    -7.0942  -7.0938  -7.0937  -7.0934  -7.0929  -7.0925  -7.0922  -7.0918
    -7.0914  -7.0907  -7.0903  -7.0900  -7.0897  -7.0897  -7.0891  -7.0888
    -7.0886  -7.0886  -7.0880  -7.0876  -7.0870  -7.0857  -7.0856  -7.0851
    -7.0850  -7.0848  -7.0846  -7.0843  -7.0836  -7.0833  -7.0826  -7.0825
    -7.0823  -7.0819  -7.0815  -7.0811  -7.0806  -7.0806  -7.0800  -7.0798
    -7.0796  -7.0791  -7.0788  -7.0781  -7.0779  -7.0776  -7.0769  -7.0767
    -7.0761  -7.0756  -7.0751  -7.0747  -7.0744  -7.0741  -7.0738  -7.0735
    -7.0733  -7.0726  -7.0724  -7.0723  -7.0718  -7.0715  -7.0711  -7.0706
    -7.0704  -7.0702  -7.0701  -7.0699  -7.0696  -7.0691  -7.0688  -7.0682
    -7.0679  -7.0675  -7.0670  -7.0670  -7.0662  -7.0661  -7.0658  -7.0655
    -7.0653  -7.0648  -7.0647  -7.0639  -7.0637  -7.0636  -7.0631  -7.0629
    -7.0625  -7.0620  -7.0617  -7.0615  -7.0613  -7.0608  -7.0604  -7.0600
    -7.0594  -7.0590  -7.0588  -7.0581  -7.0576  -7.0574  -7.0569  -7.0564
    -7.0560  -7.0554  -7.0548  -7.0547  -7.0539  -7.0538  -7.0534  -7.0530
    -7.0529  -7.0517  -7.0514  -7.0507  -7.0505  -7.0501  -7.0493  -7.0488
    -7.0487  -7.0483  -7.0476  -7.0473  -7.0471  -7.0469  -7.0466  -7.0462
    -7.0460  -7.0454  -7.0450  -7.0443  -7.0443  -7.0436  -7.0428  -7.0427
    -7.0423  -7.0422  -7.0421  -7.0419  -7.0414  -7.0410  -7.0407  -7.0403
    -7.0399  -7.0395  -7.0392  -7.0390  -7.0386  -7.0375  -7.0374  -7.0371
    -7.0368  -7.0367  -7.0359  -7.0354  -7.0350  -7.0346  -7.0342  -7.0341
    -7.0337  -7.0326  -7.0321  -7.0319  -7.0313  -7.0309  -7.0301  -7.0286
    -7.0280  -7.0277  -7.0269  -7.0262  -7.0258  -7.0255  -7.0250  -7.0245
    -7.0237  -7.0232  -7.0222  -7.0218  -7.0214  -7.0204  -7.0203  -7.0199
    -7.0196  -7.0192  -7.0187  -7.0177  -7.0170  -7.0166  -7.0163  -7.0158
    -7.0156  -7.0149  -7.0146  -7.0143  -7.0136  -7.0135  -7.0130  -7.0128
    -7.0111  -7.0107  -7.0103  -7.0096  -7.0093  -7.0089  -7.0083  -7.0076
    -7.0072  -7.0070  -7.0055  -7.0050  -7.0046  -7.0045  -7.0040  -7.0033
    -7.0027  -7.0019  -7.0012  -7.0010  -7.0010  -7.0005  -7.0002  -6.9994
    -6.9990  -6.9974  -6.9969  -6.9967  -6.9961  -6.9956  -6.9952  -6.9945
    -6.9940  -6.9934  -6.9930  -6.9928  -6.9925  -6.9920  -6.9919  -6.9912
    -6.9903  -6.9901  -6.9892  -6.9889  -6.9876  -6.9871  -6.9864  -6.9859
    -6.9851  -6.9837  -6.9835  -6.9824  -6.9823  -6.9821  -6.9813  -6.9802
    -6.9797  -6.9776  -6.9775  -6.9767  -6.9763  -6.9745  -6.9739  -6.9736
    -6.9731  -6.9715  -6.9700  -6.9688  -6.9672  -6.9658  -6.9640  -6.9635
    -6.9625  -6.9618  -6.9615  -6.9589  -6.9585  -6.9562  -6.9554  -6.9546
    -6.9526  -6.9521  -6.9511  -6.9490  -6.9464  -6.9461  -6.9452  -6.9438
    -6.9436  -6.9428  -6.9417  -6.9412  -6.9407  -6.9394  -6.9386  -6.9384
    -6.9377  -6.9348  -6.9324  -6.9307  -6.9281  -6.9265  -6.9259  -6.9236
    -6.9138  -6.9128  -6.8956  -6.8929  -6.8903  -6.8888  -6.8883  -6.8840
    -3.6208  -3.5594  -3.5313  -3.5036  -3.3603  -3.3460  -3.2990  -3.2507
    -3.2329  -3.2121  -3.1875  -3.1396  -3.0535  -3.0306  -3.0237  -2.9902
    -2.9555  -2.9360  -2.9140  -2.8708  -2.8000  -2.7905  -2.7752  -2.7610
    -2.7515  -2.7349  -2.7161  -2.7010  -2.6784  -2.6621  -2.6497  -2.6241
    -2.6034  -2.5656  -2.5267  -2.4901  -2.4687  -2.4502  -2.4364  -2.4269
    -2.4131  -2.3874  -2.3758  -2.3536  -2.3348  -2.3257  -2.3069  -2.2874
    -2.2704  -2.2569  -2.2275  -2.1986  -2.1726  -2.1218  -2.0881  -2.0723
    -1.9591  -1.9468  -1.9409  -1.9300  -1.9196  -1.8801  -1.8515  -1.8401
    -1.8298  -1.8115  -1.8096  -1.7947  -1.7834  -1.7481  -1.7418  -1.7414
    -1.7092  -1.6878  -1.6502  -1.6203  -1.6106  -1.5922  -1.5736  -1.5441
    -1.5195  -1.5035  -1.4939  -1.4534  -1.4218  -1.3902  -1.3730  -1.3445
    -1.3177  -1.2702  -1.2521  -1.2301  -1.2098  -1.2009  -1.1693  -1.1495
    -1.1167  -1.0920  -1.0357  -1.0082  -0.9491  -0.9388  -0.9145  -0.9095
    -0.8664  -0.8185  -0.8003  -0.7682  -0.4770  -0.4022  -0.3573  -0.2853
     0.0763   0.0818   0.0931   0.1027   0.1117   0.1179   0.1257   0.1440
     0.1471   0.1677   0.1779   0.1874   0.1967   0.2129   0.2176   0.2241
     0.2364   0.2440   0.2482   0.2561   0.2792   0.2838   0.2929   0.3144
     0.3245   0.3431   0.3446   0.3633   0.3687   0.3853   0.3982   0.4138
     0.4223   0.4510   0.4580   0.4718   0.4835   0.5067   0.5309   0.5379
     0.5598   0.5898   0.6166   0.6302   0.6492   0.6972   0.7196   0.7563
     0.8141   0.8299   0.8455   0.8602   0.9272   0.9567   1.0212   1.1105
     1.3288   1.3488   1.3587   1.4075   1.4451   1.4740   1.4907   1.5195
     1.5700   1.6027   1.6378   1.6515   1.6860   1.6997   1.7200   1.7458
     1.7530   1.8085   1.8239   1.8560   1.8719   1.9234   1.9349   1.9515
     1.9947   2.0063   2.0394   2.1114   2.8126   2.8304   2.9120   2.9463
     2.9592   2.9713   2.9754   2.9875   3.0148   3.0468   3.0496   3.0545
     3.0860   3.1043   3.1136   3.1326   3.3228   3.3354   3.3381   3.3481
     3.3640   3.3679   3.3875   3.3995   3.4087   3.4266   3.4469   3.4603
     3.4684   3.4861   3.5019   3.5045   3.5222   3.5330   3.5518   3.5644
     3.5867   3.5998   3.6138   3.6260   3.6453   3.6576   3.6784   3.6888
     3.7041   3.7286   3.7393   3.7490   3.7593   3.7737   3.7868   3.7910
     3.8175   3.8213   3.8441   3.8503   3.8691   3.8763   3.8857   3.9078
     3.9292   3.9433   3.9631   4.0031   4.1891   4.2065   4.2510   4.2831
     4.3276   4.3431   4.3602   4.3621   4.4070   4.4294   4.4483   4.4663
     4.4709   4.4890   4.5103   4.5219   4.5273   4.5345   4.5477   4.5547
     4.5728   4.5808   4.5861   4.6122   4.6141   4.6296   4.6481   4.6674
     4.6780   4.6954   4.6994   4.7151   4.7248   4.7293   4.7540   4.7760
     4.7873   4.8201   4.8255   4.8465   4.8597   4.8735   4.8890   4.8953
     4.9133   4.9298   4.9496   4.9616   4.9743   4.9841   4.9975   5.0156
     5.0281   5.0384   5.0598   5.0664   5.0718   5.0891   5.0948   5.1117
     5.1243   5.1289   5.1316   5.1504   5.1647   5.1792   5.1888   5.1987
     5.2278   5.2598   5.2619   5.2682   5.2795   5.2857   5.2966   5.3161
     5.3275   5.3434   5.3448   5.3761   5.3848   5.3973   5.4124   5.4455
     5.4542   5.4656   5.4906   5.5010   5.5284   5.5352   5.5509   5.5635
     5.5798   5.5877   5.5978   5.6202   5.6274   5.6518   5.6707   5.6845
     5.6869   5.7002   5.7199   5.7353   5.7561   5.7716   5.7939   5.8127
     5.8376   5.8815   5.8865   5.9019   5.9414   5.9619   5.9781   5.9886
     6.0133   6.0251   6.0381   6.0522   6.0856   6.1106   6.1245   6.1375
     6.1565   6.1788   6.1880   6.1994   6.2269   6.2352   6.2681   6.2693
     6.2903   6.3012   6.3415   6.3602   6.3737   6.3783   6.4005   6.4202
     6.4212   6.4493   6.4556   6.5018   6.5217   6.5271   6.5456   6.5611
     6.5757   6.5865   6.5998   6.6279   6.6964   6.6988   6.7229   6.7341
     6.7492   6.7758   6.8138   6.8319   6.8577   6.8604   6.8846   6.9198
     6.9571   6.9910   7.0444   7.1613   7.3750   7.4511   7.5633   7.6148
     9.6183   9.6388   9.6732   9.6893   9.7068   9.7216   9.7314   9.7764
     9.8168   9.8405   9.8761   9.8974   9.9308   9.9525   9.9805   9.9913
     9.9932  10.0207  10.0264  10.0449  10.0554  10.0618  10.0744  10.0864
    10.0968  10.1112  10.1231  10.1251  10.1407  10.1663  10.1801  10.2402
    10.2614  10.2670  10.2910  10.2982  10.3279  10.3405  10.3484  10.3619
    10.3800  10.4023  10.4123  10.4177  10.4290  10.4431  10.4537  10.4706
    10.4798  10.4822  10.4941  10.4964  10.5124  10.5274  10.5384  10.5433
    10.5515  10.5635  10.5739  10.5788  10.6045  10.6227  10.6357  10.6437
    10.6632  10.6750  10.6869  10.6948  10.7111  10.7143  10.7352  10.7500
    10.7561  10.7631  10.7645  10.7794  10.7890  10.7978  10.8038  10.8211
    10.8295  10.8605  10.8624  10.8839  10.8939  10.9160  10.9225  10.9326
    10.9365  10.9411  10.9551  10.9680  10.9721  10.9775  10.9972  11.0119
    11.0148  11.0306  11.0437  11.0476  11.0491  11.0714  11.0755  11.0912
    11.1196  11.1361  11.1515  11.1802  11.4742  11.4813  11.5260  11.5709
    11.6829  11.7475  11.7697  11.7839  11.7910  11.8084  11.8144  11.8301
    11.8352  11.8587  11.8695  11.8764  11.8947  11.9041  11.9139  11.9346
    11.9467  11.9635  11.9743  11.9903  12.0102  12.0395  12.0691  12.0700
    12.0899  12.1066  12.1158  12.1479  12.1604  12.1699  12.1781  12.1797
    12.1956  12.2004  12.2031  12.2176  12.2369  12.2628  12.2716  12.2929
    12.4130  12.4297  12.4407  12.4546  12.4723  12.4755  12.4799  12.4969
    12.5072  12.5177  12.5253  12.5401  12.5442  12.5540  12.5747  12.5823
    12.6428  12.6532  12.6796  12.6888  12.6984  12.7074  12.7155  12.7388
    12.7415  12.7516  12.7561  12.7699  12.7734  12.7753  12.7846  12.7917
    12.8005  12.8145  12.8208  12.8228  12.8318  12.8397  12.8455  12.8585
    12.8649  12.8738  12.8780  12.8845  12.8969  12.8988  12.9075  12.9173
    12.9314  12.9430  12.9514  12.9650  12.9715  12.9749  12.9844  12.9929
    13.0067  13.0228  13.0311  13.0451  13.0597  13.0614  13.0697  13.0731
    13.0841  13.0920  13.0931  13.1372  13.1986  13.2101  13.2306  13.2528
    13.2597  13.2761  13.3020  13.3251  13.4007  13.4082  13.4228  13.4328
    13.4447  13.4468  13.4626  13.4646  13.5063  13.5111  13.5341  13.5362
    13.5469  13.5714  13.5772  13.5913  13.6151  13.6255  13.6343  13.6376
    13.6471  13.6599  13.6629  13.6727  13.6837  13.6906  13.7014  13.7055
    13.7132  13.7253  13.7307  13.7497  13.7588  13.7715  13.7879  13.7972
    13.8034  13.8143  13.8184  13.8305  13.8349  13.8459  13.8561  13.8787
    13.8965  13.9024  13.9200  13.9325  13.9472  13.9596  13.9737  13.9817
    13.9890  14.0065  14.0154  14.0621  14.1656  14.1751  14.1928  14.2085
    14.2122  14.2323  14.2347  14.2458  14.2534  14.2622  14.2701  14.2758
    14.2819  14.2933  14.3044  14.3072  14.3089  14.3223  14.3267  14.3334
    14.3354  14.3397  14.3540  14.3571  14.3726  14.3785  14.3886  14.3940
    14.4113  14.4179  14.4316  14.4386  14.4463  14.4541  14.4656  14.4715
    14.4757  14.4904  14.5010  14.5144  14.5221  14.5346  14.5399  14.5536
    14.5584  14.5693  14.5785  14.5835  14.5937  14.6086  14.6154  14.6266
    14.6386  14.6448  14.6503  14.6595  14.6743  14.6831  14.6937  14.7006
    14.7148  14.7229  14.7463  14.7658  14.7801  14.7968  14.8305  14.8479
    15.0334  15.0740  15.0817  15.0910  15.1027  15.1187  15.1301  15.1612
    15.2337  15.2546  15.2746  15.3048  15.3340  15.3545  15.3632  15.4206
    15.5270  15.5333  15.5518  15.5626  15.5725  15.5844  15.6030  15.6180
    15.6219  15.6364  15.6554  15.6728  15.6856  15.6983  15.7249  15.7433
    15.8612  15.8993  15.9106  15.9242  15.9392  15.9650  15.9669  15.9807
    15.9875  16.0169  16.0303  16.0378  16.0421  16.0492  16.0589  16.0650
    16.0937  16.0992  16.1126  16.1274  16.1480  16.1579  16.1866  16.1934
    16.2070  16.2139  16.2360  16.2432  16.2540  16.2708  16.2757  16.2912
    16.2954  16.3057  16.3189  16.3418  16.3509  16.3546  16.4012  16.4059
    16.4125  16.4516  16.4681  16.4980  16.4990  16.5316  16.5506  16.5645
    16.5812  16.5834  16.5975  16.6065  16.6338  16.6536  16.6655  16.6689
    16.7464  16.7641  16.7783  16.8052  16.8547  16.8604  16.8801  16.8854
    16.9002  16.9084  16.9140  16.9339  16.9366  16.9504  16.9517  16.9568
    16.9680  16.9831  16.9864  16.9928  17.0009  17.0089  17.0193  17.0393
    17.0485  17.0615  17.0799  17.1107  17.1755  17.1855  17.1896  17.1991
    17.2070  17.2126  17.2291  17.2379  17.2512  17.2590  17.2704  17.2762
    17.2891  17.2950  17.3020  17.3131  17.3294  17.3337  17.3412  17.3544
    17.3642  17.3789  17.4018  17.4149  17.4288  17.4361  17.4503  17.4659
    17.4839  17.4903  17.5016  17.5248  17.5294  17.5365  17.5440  17.5470
    17.5549  17.5702  17.5746  17.5877  17.5923  17.6031  17.6054  17.6152
    17.6297  17.6400  17.6571  17.6672  17.6711  17.6886  17.7058  17.7159
    17.7610  17.7883  17.7965  17.8126  17.8248  17.8285  17.8419  17.8483
    17.8550  17.8589  17.8695  17.8738  17.8798  17.8927  17.9042  17.9121
    17.9138  17.9155  17.9339  17.9417  17.9452  17.9526  17.9691  17.9711
    18.0045  18.0201  18.0222  18.0330  18.0373  18.0483  18.0568  18.0635
    18.0713  18.0864  18.0935  18.1052  18.1084  18.1199  18.1390  18.1426
    18.1512  18.1670  18.1912  18.2083  18.2800  18.3139  18.3426  18.3599
    18.3845  18.4097  18.4210  18.4320  18.4522  18.4718  18.4772  18.5062
    18.5095  18.5202  18.5370  18.5398  18.5436  18.5523  18.5545  18.5689
    18.5804  18.5894  18.6026  18.6069  18.6180  18.6220  18.6351  18.6418
    18.6460  18.6540  18.6679  18.6776  18.6816  18.7057  18.7271  18.7367
    18.7633  18.8431  18.8566  18.8885  18.9242  18.9346  18.9509  18.9626
    18.9731  18.9763  18.9860  19.0107  19.0224  19.0233  19.0366  19.0617
    19.0655  19.0796  19.1172  19.1291  19.1611  19.1833  19.2149  19.2393
    19.2650  19.2836  19.2953  19.3119  19.3304  19.3437  19.3517  19.3783
    19.3835  19.4179  19.4412  19.4523  19.4795  19.4902  19.4939  19.5095
    19.5131  19.5254  19.5363  19.5417  19.5598  19.5674  19.5786  19.5889

     highest occupied, lowest unoccupied level (ev):     7.6586    8.6889

!    total energy              =  -38619.24785835 Ry
     estimated scf accuracy    <       0.00000240 Ry

     The total energy is the sum of the following terms:
     one-electron contribution =  -20367.30051673 Ry
     hartree contribution      =   12186.70762430 Ry
     xc contribution           =   -9605.53229524 Ry
     ewald contribution        =  -20828.82325392 Ry
     Hubbard energy            =      -4.29941676 Ry

     convergence has been achieved in  12 iterations

     Writing all to output data dir ./tmp_In0.0Ga1.0As0.75Sb0.25_cube_3x3x3.2/In0.0Ga1.0As0.75Sb0.25_cube_3x3x3.2.save/ :
     XML data file, charge density, pseudopotentials, collected wavefunctions

     init_run     :    217.30s CPU    219.83s WALL (       1 calls)
     electrons    :   8065.83s CPU   8086.01s WALL (       1 calls)

     Called by init_run:
     wfcinit      :    207.67s CPU    209.84s WALL (       1 calls)
     potinit      :      2.06s CPU      2.11s WALL (       1 calls)
     hinit0       :      1.74s CPU      1.75s WALL (       1 calls)

     Called by electrons:
     c_bands      :   7812.11s CPU   7831.18s WALL (      13 calls)
     sum_band     :    248.83s CPU    249.34s WALL (      13 calls)
     v_of_rho     :      3.32s CPU      3.47s WALL (      13 calls)
     mix_rho      :      0.71s CPU      0.72s WALL (      13 calls)

     Called by c_bands:
     init_us_2    :     29.19s CPU     29.65s WALL (      28 calls)
     cegterg      :   7442.01s CPU   7459.64s WALL (      13 calls)

     Called by *egterg:
     cdiaghg      :    632.61s CPU    633.42s WALL (      90 calls)
     h_psi        :   4489.02s CPU   4499.11s WALL (      92 calls)
     g_psi        :      3.80s CPU      3.80s WALL (      78 calls)

     Called by h_psi:
     h_psi:calbec :    780.64s CPU    780.72s WALL (      92 calls)
     vloc_psi     :    653.07s CPU    654.79s WALL (      92 calls)
     add_vuspsi   :    763.72s CPU    766.38s WALL (      92 calls)
     vhpsi        :   2283.98s CPU   2284.19s WALL (      92 calls)

     General routines
     calbec       :    991.09s CPU    991.19s WALL (     198 calls)
     fft          :      3.06s CPU      3.18s WALL (     131 calls)
     ffts         :      0.19s CPU      0.19s WALL (      13 calls)
     fftw         :    658.33s CPU    660.06s WALL (  159934 calls)

     Parallel routines

     Hubbard U routines
     new_ns       :     56.43s CPU     56.43s WALL (      13 calls)
     vhpsi        :   2283.98s CPU   2284.19s WALL (      92 calls)

     PWSCF        :      2h18m CPU      2h19m WALL


   This run was terminated on:  18: 4:57  13Jun2025            

=------------------------------------------------------------------------------=
   JOB DONE.
=------------------------------------------------------------------------------=
