
     Program PWSCF v.7.3.1 starts on 28Jan2026 at 14:46:34 

     This program is part of the open-source Quantum ESPRESSO suite
     for quantum simulation of materials; please cite
         "P. Giannozzi et al., J. Phys.:Condens. Matter 21 395502 (2009);
         "P. Giannozzi et al., J. Phys.:Condens. Matter 29 465901 (2017);
         "P. Giannozzi et al., J. Chem. Phys. 152 154105 (2020);
          URL http://www.quantum-espresso.org", 
     in publications or presentations arising from this work. More details at
     http://www.quantum-espresso.org/quote

     Parallel version (MPI), running on   640 processors

     MPI processes distributed on     5 nodes
     493468 MiB available memory on the printing compute node when the environment starts

     Reading input from In1.0Ga0.0As0.25Sb0.75_cube_3x3x3.2.scf.in
Warning: card &CELL ignored
Warning: card   CELL_DOFREE = 'ALL', ignored
Warning: card / ignored

     Current dimensions of program PWSCF are:
     Max number of different atomic species (ntypx) = 10
     Max number of k-points (npk) =  40000
     Max angular momentum in pseudopotentials (lmaxx) =  4

     K-points division:     npool     =       5
     R & G space division:  proc/nbgrp/npool/nimage =     128
     Subspace diagonalization in iterative solution of the eigenvalue problem:
     one sub-group per band group will be used
     custom distributed-memory algorithm (size of sub-group: 11* 11 procs)


     Parallelization info
     --------------------
     sticks:   dense  smooth     PW     G-vecs:    dense   smooth      PW
     Min         394     394    101                66791    66791    8697
     Max         396     396    102                66801    66801    8704
     Sum       50557   50557  12989              8550033  8550033 1113525

     Using Slab Decomposition



     bravais-lattice index     =            1
     lattice parameter (alat)  =      36.3786  a.u.
     unit-cell volume          =   48143.6123 (a.u.)^3
     number of atoms/cell      =          216
     number of atomic types    =            4
     number of electrons       =      3024.00
     number of Kohn-Sham states=         2160
     kinetic-energy cutoff     =     120.0000  Ry
     charge density cutoff     =     480.0000  Ry
     scf convergence threshold =      1.0E-05
     mixing beta               =       0.6500
     number of iterations used =            8  plain     mixing
     Exchange-correlation= PBE
                           (   1   4   3   4   0   0   0)
     Hubbard projectors: atomic
     Hubbard parameters of DFT+U (Dudarev formulation) in eV:
     U(As-4p) =  3.2600
     U(Ga-4p) = -2.3350
     U(In-5p) = -1.0575
     U(Sb-5p) =  3.1600

     Internal variables: lda_plus_u =T, lda_plus_u_kind = 0

     celldm(1)=  36.378620  celldm(2)=   0.000000  celldm(3)=   0.000000
     celldm(4)=   0.000000  celldm(5)=   0.000000  celldm(6)=   0.000000

     crystal axes: (cart. coord. in units of alat)
               a(1) = (   1.000000   0.000000   0.000000 )  
               a(2) = (   0.000000   1.000000   0.000000 )  
               a(3) = (   0.000000   0.000000   1.000000 )  

     reciprocal axes: (cart. coord. in units 2 pi/alat)
               b(1) = (  1.000000  0.000000  0.000000 )  
               b(2) = (  0.000000  1.000000  0.000000 )  
               b(3) = (  0.000000  0.000000  1.000000 )  


     PseudoPot. # 1 for As read from file:
     /work/i254/i254/gentles/data/pseudos/As.pbe.NC-SR.standard.v0.5.UPF
     MD5 check sum: bfe1a874457ce592347346129958e7cf
     Pseudo is Norm-conserving + core correction, Zval = 15.0
     Generated using ONCVPSP code by D. R. Hamann
     Using radial grid of 1358 points,  6 beta functions with: 
                l(1) =   0
                l(2) =   0
                l(3) =   1
                l(4) =   1
                l(5) =   2
                l(6) =   2

     PseudoPot. # 2 for Ga read from file:
     /work/i254/i254/gentles/data/pseudos/Ga.pbe.NC-SR.standard.v0.5.UPF
     MD5 check sum: 2bb81bf6f0a8d9832cf3329850435ecf
     Pseudo is Norm-conserving + core correction, Zval = 13.0
     Generated using ONCVPSP code by D. R. Hamann
     Using radial grid of 1902 points,  6 beta functions with: 
                l(1) =   0
                l(2) =   0
                l(3) =   1
                l(4) =   1
                l(5) =   2
                l(6) =   2

     PseudoPot. # 3 for In read from file:
     /work/i254/i254/gentles/data/pseudos/In.pbe.NC-SR.standard.v0.5.UPF
     MD5 check sum: 835f4bf908c982ff75c88e16816a8d7f
     Pseudo is Norm-conserving + core correction, Zval = 13.0
     Generated using ONCVPSP code by D. R. Hamann
     Using radial grid of 1964 points,  6 beta functions with: 
                l(1) =   0
                l(2) =   0
                l(3) =   1
                l(4) =   1
                l(5) =   2
                l(6) =   2

     PseudoPot. # 4 for Sb read from file:
     /work/i254/i254/gentles/data/pseudos/Sb.pbe.NC-SR.standard.v0.5.UPF
     MD5 check sum: 127f69b6101c45666faeae1b5d611565
     Pseudo is Norm-conserving + core correction, Zval = 15.0
     Generated using ONCVPSP code by D. R. Hamann
     Using radial grid of 1434 points,  6 beta functions with: 
                l(1) =   0
                l(2) =   0
                l(3) =   1
                l(4) =   1
                l(5) =   2
                l(6) =   2

     atomic species   valence    mass     pseudopotential
     As               15.00    74.92160     As( 1.00)
     Ga               13.00    69.72300     Ga( 1.00)
     In               13.00   114.81800     In( 1.00)
     Sb               15.00   121.76000     Sb( 1.00)

     No symmetry found



   Cartesian axes

     site n.     atom                  positions (alat units)
         1        In     tau(   1) = (  -0.0011310   0.0020140  -0.0011430  )
         2        In     tau(   2) = (  -0.0012390   0.1738670   0.1658500  )
         3        In     tau(   3) = (   0.1653630  -0.0006960   0.1662510  )
         4        In     tau(   4) = (   0.1615100   0.1706040  -0.0056630  )
         5        Sb     tau(   5) = (   0.0818300   0.0865810   0.0830140  )
         6        As     tau(   6) = (   0.0816570   0.2511700   0.2457440  )
         7        Sb     tau(   7) = (   0.2492580   0.0848560   0.2488040  )
         8        Sb     tau(   8) = (   0.2465320   0.2528590   0.0794400  )
         9        In     tau(   9) = (  -0.0038590  -0.0043460   0.3367660  )
        10        In     tau(  10) = (  -0.0011420   0.1667410   0.5016360  )
        11        In     tau(  11) = (   0.1630520  -0.0044540   0.5023670  )
        12        In     tau(  12) = (   0.1604200   0.1704200   0.3269900  )
        13        Sb     tau(  13) = (   0.0819740   0.0827920   0.4163870  )
        14        Sb     tau(  14) = (   0.0825970   0.2514130   0.5856240  )
        15        Sb     tau(  15) = (   0.2500450   0.0807790   0.5842340  )
        16        Sb     tau(  16) = (   0.2466930   0.2512620   0.4143000  )
        17        In     tau(  17) = (   0.0040670  -0.0040990   0.6614230  )
        18        In     tau(  18) = (  -0.0007650   0.1767670   0.8342540  )
        19        In     tau(  19) = (   0.1667440   0.0023720   0.8332790  )
        20        In     tau(  20) = (   0.1679340   0.1674070   0.6687310  )
        21        Sb     tau(  21) = (   0.0803840   0.0854910   0.7503760  )
        22        As     tau(  22) = (   0.0810430   0.2537840   0.9183060  )
        23        Sb     tau(  23) = (   0.2516690   0.0852890   0.9173430  )
        24        Sb     tau(  24) = (   0.2484520   0.2528610   0.7560090  )
        25        In     tau(  25) = (   0.0038770   0.3333750   0.0033950  )
        26        In     tau(  26) = (   0.0103700   0.5007690   0.1661550  )
        27        In     tau(  27) = (   0.1593810   0.3339260   0.1651700  )
        28        In     tau(  28) = (   0.1703750   0.4954890   0.0051120  )
        29        As     tau(  29) = (   0.0848170   0.4167130   0.0831220  )
        30        As     tau(  30) = (   0.0852400   0.5844690   0.2500250  )
        31        Sb     tau(  31) = (   0.2465610   0.4183620   0.2466160  )
        32        As     tau(  32) = (   0.2473430   0.5836920   0.0834050  )
        33        In     tau(  33) = (   0.0040960   0.3293000   0.3286280  )
        34        In     tau(  34) = (  -0.0051060   0.5020490   0.4971270  )
        35        In     tau(  35) = (   0.1656270   0.3369060   0.5004240  )
        36        In     tau(  36) = (   0.1635150   0.5042630   0.3301610  )
        37        Sb     tau(  37) = (   0.0812410   0.4182510   0.4143240  )
        38        Sb     tau(  38) = (   0.0803340   0.5839990   0.5821450  )
        39        Sb     tau(  39) = (   0.2521500   0.4195530   0.5834580  )
        40        Sb     tau(  40) = (   0.2477450   0.5866610   0.4163420  )
        41        In     tau(  41) = (  -0.0055960   0.3292030   0.6722160  )
        42        In     tau(  42) = (  -0.0034740   0.5036190   0.8308820  )
        43        In     tau(  43) = (   0.1644990   0.3362650   0.8439170  )
        44        In     tau(  44) = (   0.1643190   0.4997920   0.6669930  )
        45        Sb     tau(  45) = (   0.0812680   0.4152890   0.7526230  )
        46        Sb     tau(  46) = (   0.0869860   0.5807830   0.9174550  )
        47        As     tau(  47) = (   0.2485850   0.4158250   0.9208520  )
        48        Sb     tau(  48) = (   0.2505230   0.5827960   0.7508110  )
        49        In     tau(  49) = (   0.0018350   0.6654310   0.0002430  )
        50        In     tau(  50) = (   0.0015420   0.8314420   0.1661300  )
        51        In     tau(  51) = (   0.1701310   0.6610860   0.1705090  )
        52        In     tau(  52) = (   0.1706890   0.8284910  -0.0038490  )
        53        Sb     tau(  53) = (   0.0878130   0.7467500   0.0844960  )
        54        Sb     tau(  54) = (   0.0835910   0.9140700   0.2523200  )
        55        As     tau(  55) = (   0.2492570   0.7463740   0.2476110  )
        56        Sb     tau(  56) = (   0.2501310   0.9128460   0.0841550  )
        57        In     tau(  57) = (   0.0048960   0.6626370   0.3353550  )
        58        In     tau(  58) = (   0.0045170   0.8343580   0.4951220  )
        59        In     tau(  59) = (   0.1609610   0.6720530   0.4968560  )
        60        In     tau(  60) = (   0.1668580   0.8224940   0.3306570  )
        61        As     tau(  61) = (   0.0821820   0.7492230   0.4137860  )
        62        As     tau(  62) = (   0.0821030   0.9144970   0.5797200  )
        63        Sb     tau(  63) = (   0.2495930   0.7492820   0.5834070  )
        64        Sb     tau(  64) = (   0.2467810   0.9119080   0.4157740  )
        65        In     tau(  65) = (  -0.0044720   0.6619440   0.6712320  )
        66        In     tau(  66) = (  -0.0005160   0.8343520   0.8335710  )
        67        In     tau(  67) = (   0.1720430   0.6704270   0.8377220  )
        68        In     tau(  68) = (   0.1611500   0.8350400   0.6617340  )
        69        Sb     tau(  69) = (   0.0829510   0.7487730   0.7508740  )
        70        Sb     tau(  70) = (   0.0847410   0.9166420   0.9175370  )
        71        As     tau(  71) = (   0.2523420   0.7482210   0.9191250  )
        72        Sb     tau(  72) = (   0.2471410   0.9140370   0.7502540  )
        73        In     tau(  73) = (   0.3340750  -0.0015720   0.0018730  )
        74        In     tau(  74) = (   0.3321450   0.1688030   0.1629020  )
        75        In     tau(  75) = (   0.5024720   0.0024170   0.1691140  )
        76        In     tau(  76) = (   0.5003160   0.1680350  -0.0089500  )
        77        Sb     tau(  77) = (   0.4196550   0.0852500   0.0811860  )
        78        Sb     tau(  78) = (   0.4172150   0.2500690   0.2493180  )
        79        As     tau(  79) = (   0.5827710   0.0818930   0.2495680  )
        80        Sb     tau(  80) = (   0.5834040   0.2487450   0.0802400  )
        81        In     tau(  81) = (   0.3312280  -0.0014390   0.3341080  )
        82        In     tau(  82) = (   0.3319120   0.1659740   0.4976780  )
        83        In     tau(  83) = (   0.5058410   0.0040670   0.5056160  )
        84        In     tau(  84) = (   0.5038440   0.1629710   0.3291750  )
        85        Sb     tau(  85) = (   0.4192470   0.0819060   0.4165650  )
        86        Sb     tau(  86) = (   0.4168930   0.2480310   0.5840400  )
        87        As     tau(  87) = (   0.5861940   0.0830850   0.5863190  )
        88        Sb     tau(  88) = (   0.5859570   0.2475120   0.4166610  )
        89        In     tau(  89) = (   0.3352140  -0.0013320   0.6705300  )
        90        In     tau(  90) = (   0.3382160   0.1711640   0.8367360  )
        91        In     tau(  91) = (   0.5051310   0.0019290   0.8368850  )
        92        In     tau(  92) = (   0.5065130   0.1638920   0.6641380  )
        93        Sb     tau(  93) = (   0.4203570   0.0848920   0.7521480  )
        94        As     tau(  94) = (   0.4167120   0.2507030   0.9166040  )
        95        As     tau(  95) = (   0.5839750   0.0861080   0.9147020  )
        96        Sb     tau(  96) = (   0.5872450   0.2488160   0.7525830  )
        97        In     tau(  97) = (   0.3332530   0.3326500  -0.0073970  )
        98        In     tau(  98) = (   0.3288980   0.5035620   0.1607210  )
        99        In     tau(  99) = (   0.4992870   0.3348110   0.1642470  )
       100        In     tau( 100) = (   0.5016950   0.4998130  -0.0013790  )
       101        Sb     tau( 101) = (   0.4143200   0.4170550   0.0795740  )
       102        Sb     tau( 102) = (   0.4145890   0.5846610   0.2479280  )
       103        Sb     tau( 103) = (   0.5823100   0.4186520   0.2508970  )
       104        Sb     tau( 104) = (   0.5836590   0.5855170   0.0821250  )
       105        In     tau( 105) = (   0.3328620   0.3365470   0.3323310  )
       106        In     tau( 106) = (   0.3365950   0.5074330   0.5026930  )
       107        In     tau( 107) = (   0.5006300   0.3327660   0.4998600  )
       108        In     tau( 108) = (   0.5028830   0.5070530   0.3365900  )
       109        Sb     tau( 109) = (   0.4175480   0.4206360   0.4175560  )
       110        As     tau( 110) = (   0.4188350   0.5850280   0.5824300  )
       111        Sb     tau( 111) = (   0.5828740   0.4191500   0.5848900  )
       112        As     tau( 112) = (   0.5822270   0.5854440   0.4194950  )
       113        In     tau( 113) = (   0.3328100   0.3332340   0.6685640  )
       114        In     tau( 114) = (   0.3272250   0.4960230   0.8394030  )
       115        In     tau( 115) = (   0.4967830   0.3283220   0.8356520  )
       116        In     tau( 116) = (   0.4946050   0.5043910   0.6654700  )
       117        Sb     tau( 117) = (   0.4152290   0.4172830   0.7531260  )
       118        Sb     tau( 118) = (   0.4133710   0.5844500   0.9193690  )
       119        Sb     tau( 119) = (   0.5847140   0.4135350   0.9144930  )
       120        Sb     tau( 120) = (   0.5840100   0.5841080   0.7491810  )
       121        In     tau( 121) = (   0.3279780   0.6678820   0.0049460  )
       122        In     tau( 122) = (   0.3324590   0.8248950   0.1667980  )
       123        In     tau( 123) = (   0.4944310   0.6702970   0.1614300  )
       124        In     tau( 124) = (   0.4968900   0.8256160   0.0019850  )
       125        As     tau( 125) = (   0.4121000   0.7480010   0.0823170  )
       126        Sb     tau( 126) = (   0.4148540   0.9150900   0.2485620  )
       127        Sb     tau( 127) = (   0.5813000   0.7493640   0.2493270  )
       128        Sb     tau( 128) = (   0.5823070   0.9158250   0.0823410  )
       129        In     tau( 129) = (   0.3293700   0.6702970   0.3295200  )
       130        In     tau( 130) = (   0.3348980   0.8331930   0.5004220  )
       131        In     tau( 131) = (   0.5028220   0.6633920   0.5033620  )
       132        In     tau( 132) = (   0.4993980   0.8341760   0.3350880  )
       133        Sb     tau( 133) = (   0.4176250   0.7468950   0.4177320  )
       134        Sb     tau( 134) = (   0.4196730   0.9170600   0.5843770  )
       135        As     tau( 135) = (   0.5811670   0.7478220   0.5822120  )
       136        Sb     tau( 136) = (   0.5844310   0.9174310   0.4185950  )
       137        In     tau( 137) = (   0.3375760   0.6621480   0.6634700  )
       138        In     tau( 138) = (   0.3299520   0.8280290   0.8358160  )
       139        In     tau( 139) = (   0.5029360   0.6682910   0.8382280  )
       140        In     tau( 140) = (   0.5044490   0.8298690   0.6639410  )
       141        Sb     tau( 141) = (   0.4184700   0.7482680   0.7498810  )
       142        Sb     tau( 142) = (   0.4175020   0.9140770   0.9166180  )
       143        As     tau( 143) = (   0.5804300   0.7502860   0.9186460  )
       144        Sb     tau( 144) = (   0.5862960   0.9172620   0.7493390  )
       145        In     tau( 145) = (   0.6614120   0.0051960  -0.0040530  )
       146        In     tau( 146) = (   0.6615370   0.1626960   0.1693720  )
       147        In     tau( 147) = (   0.8332370   0.0020590   0.1642300  )
       148        In     tau( 148) = (   0.8351810   0.1766440   0.0005930  )
       149        Sb     tau( 149) = (   0.7489590   0.0871850   0.0805970  )
       150        Sb     tau( 150) = (   0.7508530   0.2495190   0.2465620  )
       151        Sb     tau( 151) = (   0.9176680   0.0844790   0.2498560  )
       152        As     tau( 152) = (   0.9204310   0.2528300   0.0816840  )
       153        In     tau( 153) = (   0.6632920   0.0031820   0.3301720  )
       154        In     tau( 154) = (   0.6653300   0.1629160   0.5066650  )
       155        In     tau( 155) = (   0.8367510  -0.0059630   0.4961520  )
       156        In     tau( 156) = (   0.8320700   0.1668230   0.3343150  )
       157        Sb     tau( 157) = (   0.7492070   0.0816890   0.4180190  )
       158        Sb     tau( 158) = (   0.7506840   0.2490120   0.5888750  )
       159        Sb     tau( 159) = (   0.9146570   0.0815900   0.5848480  )
       160        Sb     tau( 160) = (   0.9171870   0.2513990   0.4162770  )
       161        In     tau( 161) = (   0.6693700   0.0082300   0.6686770  )
       162        In     tau( 162) = (   0.6713550   0.1635750   0.8379960  )
       163        In     tau( 163) = (   0.8294480   0.0053530   0.8282390  )
       164        In     tau( 164) = (   0.8342560   0.1657270   0.6761520  )
       165        As     tau( 165) = (   0.7489850   0.0866430   0.7518330  )
       166        As     tau( 166) = (   0.7525220   0.2483360   0.9144390  )
       167        Sb     tau( 167) = (   0.9149520   0.0884410   0.9152480  )
       168        As     tau( 168) = (   0.9138300   0.2500690   0.7528880  )
       169        In     tau( 169) = (   0.6718040   0.3275930  -0.0059010  )
       170        In     tau( 170) = (   0.6679060   0.4994800   0.1658280  )
       171        In     tau( 171) = (   0.8394050   0.3310350   0.1617170  )
       172        In     tau( 172) = (   0.8342390   0.4995440  -0.0002620  )
       173        Sb     tau( 173) = (   0.7508180   0.4137790   0.0812680  )
       174        Sb     tau( 174) = (   0.7501560   0.5824730   0.2530400  )
       175        Sb     tau( 175) = (   0.9216580   0.4172140   0.2474750  )
       176        Sb     tau( 176) = (   0.9191920   0.5818260   0.0853980  )
       177        In     tau( 177) = (   0.6692670   0.3342440   0.3323620  )
       178        In     tau( 178) = (   0.6634480   0.5043270   0.4970940  )
       179        In     tau( 179) = (   0.8321630   0.3336030   0.5021020  )
       180        In     tau( 180) = (   0.8410330   0.5030830   0.3354860  )
       181        Sb     tau( 181) = (   0.7516130   0.4199410   0.4166350  )
       182        Sb     tau( 182) = (   0.7515350   0.5834120   0.5834360  )
       183        Sb     tau( 183) = (   0.9150110   0.4177990   0.5869680  )
       184        As     tau( 184) = (   0.9207290   0.5839010   0.4145720  )
       185        In     tau( 185) = (   0.6706620   0.3391610   0.6718480  )
       186        In     tau( 186) = (   0.6700940   0.4944160   0.8278880  )
       187        In     tau( 187) = (   0.8301290   0.3291130   0.8312200  )
       188        In     tau( 188) = (   0.8317410   0.4994840   0.6746470  )
       189        As     tau( 189) = (   0.7534310   0.4150140   0.7521390  )
       190        Sb     tau( 190) = (   0.7496230   0.5819580   0.9137720  )
       191        Sb     tau( 191) = (   0.9168170   0.4137720   0.9154390  )
       192        As     tau( 192) = (   0.9151460   0.5812230   0.7501500  )
       193        In     tau( 193) = (   0.6633290   0.6695610  -0.0062740  )
       194        In     tau( 194) = (   0.6683860   0.8331980   0.1673450  )
       195        In     tau( 195) = (   0.8333370   0.6665990   0.1681240  )
       196        In     tau( 196) = (   0.8324550   0.8342040  -0.0022970  )
       197        Sb     tau( 197) = (   0.7496520   0.7489620   0.0810870  )
       198        Sb     tau( 198) = (   0.7520000   0.9181570   0.2514450  )
       199        Sb     tau( 199) = (   0.9185280   0.7489470   0.2536330  )
       200        Sb     tau( 200) = (   0.9171430   0.9159350   0.0824550  )
       201        In     tau( 201) = (   0.6617900   0.6638130   0.3371210  )
       202        In     tau( 202) = (   0.6627840   0.8285230   0.5047270  )
       203        In     tau( 203) = (   0.8396740   0.6620860   0.4958070  )
       204        In     tau( 204) = (   0.8369420   0.8362000   0.3391010  )
       205        Sb     tau( 205) = (   0.7499860   0.7482630   0.4186240  )
       206        Sb     tau( 206) = (   0.7479410   0.9178080   0.5836660  )
       207        Sb     tau( 207) = (   0.9194560   0.7499270   0.5816170  )
       208        As     tau( 208) = (   0.9193190   0.9144060   0.4184700  )
       209        In     tau( 209) = (   0.6634550   0.6706160   0.6614450  )
       210        In     tau( 210) = (   0.6622920   0.8293110   0.8379080  )
       211        In     tau( 211) = (   0.8362670   0.6618770   0.8284900  )
       212        In     tau( 212) = (   0.8323460   0.8332170   0.6660860  )
       213        Sb     tau( 213) = (   0.7483650   0.7487080   0.7504190  )
       214        Sb     tau( 214) = (   0.7476210   0.9193460   0.9146830  )
       215        Sb     tau( 215) = (   0.9164560   0.7479180   0.9152250  )
       216        Sb     tau( 216) = (   0.9166040   0.9184230   0.7486070  )

     number of k points=     8
                       cart. coord. in units 2pi/alat
        k(    1) = (   0.0000000   0.0000000   0.0000000), wk =   0.2500000
        k(    2) = (   0.0000000   0.0000000  -0.5000000), wk =   0.2500000
        k(    3) = (   0.0000000  -0.5000000  -0.5000000), wk =   0.2500000
        k(    4) = (  -0.5000000  -0.5000000  -0.5000000), wk =   0.2500000
        k(    5) = (  -0.5000000   0.0000000   0.0000000), wk =   0.2500000
        k(    6) = (   0.0000000  -0.5000000   0.0000000), wk =   0.2500000
        k(    7) = (  -0.5000000   0.0000000   0.5000000), wk =   0.2500000
        k(    8) = (  -0.5000000   0.5000000   0.0000000), wk =   0.2500000

     Dense  grid:  8550033 G-vectors     FFT dimensions: ( 256, 256, 256)

     Estimated max dynamical RAM per process >       2.79 GB

     Estimated total dynamical RAM >    1775.78 GB

     Initial potential from superposition of free atoms

     starting charge    3023.5275, renormalised to    3024.0000

     STARTING HUBBARD OCCUPATIONS:

     =================== HUBBARD OCCUPATIONS ===================
     ------------------------ ATOM    1 ------------------------
     Tr[ns(  1)] =   1.00000
     eigenvalues:
       0.167  0.167  0.167
     eigenvectors (columns):
       1.000  0.000  0.000
       0.000  1.000  0.000
       0.000  0.000  1.000
     occupation matrix ns (before diag.):
       0.167  0.000  0.000
       0.000  0.167  0.000
       0.000  0.000  0.167
     ------------------------ ATOM    2 ------------------------
     Tr[ns(  2)] =   1.00000
     eigenvalues:
       0.167  0.167  0.167
     eigenvectors (columns):
       1.000  0.000  0.000
       0.000  1.000  0.000
       0.000  0.000  1.000
     occupation matrix ns (before diag.):
       0.167  0.000  0.000
       0.000  0.167  0.000
       0.000  0.000  0.167
     ------------------------ ATOM    3 ------------------------
     Tr[ns(  3)] =   1.00000
     eigenvalues:
       0.167  0.167  0.167
     eigenvectors (columns):
       1.000  0.000  0.000
       0.000  1.000  0.000
       0.000  0.000  1.000
     occupation matrix ns (before diag.):
       0.167  0.000  0.000
       0.000  0.167  0.000
       0.000  0.000  0.167
     ------------------------ ATOM    4 ------------------------
     Tr[ns(  4)] =   1.00000
     eigenvalues:
       0.167  0.167  0.167
     eigenvectors (columns):
       1.000  0.000  0.000
       0.000  1.000  0.000
       0.000  0.000  1.000
     occupation matrix ns (before diag.):
       0.167  0.000  0.000
       0.000  0.167  0.000
       0.000  0.000  0.167
     ------------------------ ATOM    5 ------------------------
     Tr[ns(  5)] =   3.00000
     eigenvalues:
       0.500  0.500  0.500
     eigenvectors (columns):
       1.000  0.000  0.000
       0.000  1.000  0.000
       0.000  0.000  1.000
     occupation matrix ns (before diag.):
       0.500  0.000  0.000
       0.000  0.500  0.000
       0.000  0.000  0.500
     ------------------------ ATOM    6 ------------------------
     Tr[ns(  6)] =   3.00000
     eigenvalues:
       0.500  0.500  0.500
     eigenvectors (columns):
       1.000  0.000  0.000
       0.000  1.000  0.000
       0.000  0.000  1.000
     occupation matrix ns (before diag.):
       0.500  0.000  0.000
       0.000  0.500  0.000
       0.000  0.000  0.500
     ------------------------ ATOM    7 ------------------------
     Tr[ns(  7)] =   3.00000
     eigenvalues:
       0.500  0.500  0.500
     eigenvectors (columns):
       1.000  0.000  0.000
       0.000  1.000  0.000
       0.000  0.000  1.000
     occupation matrix ns (before diag.):
       0.500  0.000  0.000
       0.000  0.500  0.000
       0.000  0.000  0.500
     ------------------------ ATOM    8 ------------------------
     Tr[ns(  8)] =   3.00000
     eigenvalues:
       0.500  0.500  0.500
     eigenvectors (columns):
       1.000  0.000  0.000
       0.000  1.000  0.000
       0.000  0.000  1.000
     occupation matrix ns (before diag.):
       0.500  0.000  0.000
       0.000  0.500  0.000
       0.000  0.000  0.500
     ------------------------ ATOM    9 ------------------------
     Tr[ns(  9)] =   1.00000
     eigenvalues:
       0.167  0.167  0.167
     eigenvectors (columns):
       1.000  0.000  0.000
       0.000  1.000  0.000
       0.000  0.000  1.000
     occupation matrix ns (before diag.):
       0.167  0.000  0.000
       0.000  0.167  0.000
       0.000  0.000  0.167
     ------------------------ ATOM   10 ------------------------
     Tr[ns( 10)] =   1.00000
     eigenvalues:
       0.167  0.167  0.167
     eigenvectors (columns):
       1.000  0.000  0.000
       0.000  1.000  0.000
       0.000  0.000  1.000
     occupation matrix ns (before diag.):
       0.167  0.000  0.000
       0.000  0.167  0.000
       0.000  0.000  0.167
     ------------------------ ATOM   11 ------------------------
     Tr[ns( 11)] =   1.00000
     eigenvalues:
       0.167  0.167  0.167
     eigenvectors (columns):
       1.000  0.000  0.000
       0.000  1.000  0.000
       0.000  0.000  1.000
     occupation matrix ns (before diag.):
       0.167  0.000  0.000
       0.000  0.167  0.000
       0.000  0.000  0.167
     ------------------------ ATOM   12 ------------------------
     Tr[ns( 12)] =   1.00000
     eigenvalues:
       0.167  0.167  0.167
     eigenvectors (columns):
       1.000  0.000  0.000
       0.000  1.000  0.000
       0.000  0.000  1.000
     occupation matrix ns (before diag.):
       0.167  0.000  0.000
       0.000  0.167  0.000
       0.000  0.000  0.167
     ------------------------ ATOM   13 ------------------------
     Tr[ns( 13)] =   3.00000
     eigenvalues:
       0.500  0.500  0.500
     eigenvectors (columns):
       1.000  0.000  0.000
       0.000  1.000  0.000
       0.000  0.000  1.000
     occupation matrix ns (before diag.):
       0.500  0.000  0.000
       0.000  0.500  0.000
       0.000  0.000  0.500
     ------------------------ ATOM   14 ------------------------
     Tr[ns( 14)] =   3.00000
     eigenvalues:
       0.500  0.500  0.500
     eigenvectors (columns):
       1.000  0.000  0.000
       0.000  1.000  0.000
       0.000  0.000  1.000
     occupation matrix ns (before diag.):
       0.500  0.000  0.000
       0.000  0.500  0.000
       0.000  0.000  0.500
     ------------------------ ATOM   15 ------------------------
     Tr[ns( 15)] =   3.00000
     eigenvalues:
       0.500  0.500  0.500
     eigenvectors (columns):
       1.000  0.000  0.000
       0.000  1.000  0.000
       0.000  0.000  1.000
     occupation matrix ns (before diag.):
       0.500  0.000  0.000
       0.000  0.500  0.000
       0.000  0.000  0.500
     ------------------------ ATOM   16 ------------------------
     Tr[ns( 16)] =   3.00000
     eigenvalues:
       0.500  0.500  0.500
     eigenvectors (columns):
       1.000  0.000  0.000
       0.000  1.000  0.000
       0.000  0.000  1.000
     occupation matrix ns (before diag.):
       0.500  0.000  0.000
       0.000  0.500  0.000
       0.000  0.000  0.500
     ------------------------ ATOM   17 ------------------------
     Tr[ns( 17)] =   1.00000
     eigenvalues:
       0.167  0.167  0.167
     eigenvectors (columns):
       1.000  0.000  0.000
       0.000  1.000  0.000
       0.000  0.000  1.000
     occupation matrix ns (before diag.):
       0.167  0.000  0.000
       0.000  0.167  0.000
       0.000  0.000  0.167
     ------------------------ ATOM   18 ------------------------
     Tr[ns( 18)] =   1.00000
     eigenvalues:
       0.167  0.167  0.167
     eigenvectors (columns):
       1.000  0.000  0.000
       0.000  1.000  0.000
       0.000  0.000  1.000
     occupation matrix ns (before diag.):
       0.167  0.000  0.000
       0.000  0.167  0.000
       0.000  0.000  0.167
     ------------------------ ATOM   19 ------------------------
     Tr[ns( 19)] =   1.00000
     eigenvalues:
       0.167  0.167  0.167
     eigenvectors (columns):
       1.000  0.000  0.000
       0.000  1.000  0.000
       0.000  0.000  1.000
     occupation matrix ns (before diag.):
       0.167  0.000  0.000
       0.000  0.167  0.000
       0.000  0.000  0.167
     ------------------------ ATOM   20 ------------------------
     Tr[ns( 20)] =   1.00000
     eigenvalues:
       0.167  0.167  0.167
     eigenvectors (columns):
       1.000  0.000  0.000
       0.000  1.000  0.000
       0.000  0.000  1.000
     occupation matrix ns (before diag.):
       0.167  0.000  0.000
       0.000  0.167  0.000
       0.000  0.000  0.167
     ------------------------ ATOM   21 ------------------------
     Tr[ns( 21)] =   3.00000
     eigenvalues:
       0.500  0.500  0.500
     eigenvectors (columns):
       1.000  0.000  0.000
       0.000  1.000  0.000
       0.000  0.000  1.000
     occupation matrix ns (before diag.):
       0.500  0.000  0.000
       0.000  0.500  0.000
       0.000  0.000  0.500
     ------------------------ ATOM   22 ------------------------
     Tr[ns( 22)] =   3.00000
     eigenvalues:
       0.500  0.500  0.500
     eigenvectors (columns):
       1.000  0.000  0.000
       0.000  1.000  0.000
       0.000  0.000  1.000
     occupation matrix ns (before diag.):
       0.500  0.000  0.000
       0.000  0.500  0.000
       0.000  0.000  0.500
     ------------------------ ATOM   23 ------------------------
     Tr[ns( 23)] =   3.00000
     eigenvalues:
       0.500  0.500  0.500
     eigenvectors (columns):
       1.000  0.000  0.000
       0.000  1.000  0.000
       0.000  0.000  1.000
     occupation matrix ns (before diag.):
       0.500  0.000  0.000
       0.000  0.500  0.000
       0.000  0.000  0.500
     ------------------------ ATOM   24 ------------------------
     Tr[ns( 24)] =   3.00000
     eigenvalues:
       0.500  0.500  0.500
     eigenvectors (columns):
       1.000  0.000  0.000
       0.000  1.000  0.000
       0.000  0.000  1.000
     occupation matrix ns (before diag.):
       0.500  0.000  0.000
       0.000  0.500  0.000
       0.000  0.000  0.500
     ------------------------ ATOM   25 ------------------------
     Tr[ns( 25)] =   1.00000
     eigenvalues:
       0.167  0.167  0.167
     eigenvectors (columns):
       1.000  0.000  0.000
       0.000  1.000  0.000
       0.000  0.000  1.000
     occupation matrix ns (before diag.):
       0.167  0.000  0.000
       0.000  0.167  0.000
       0.000  0.000  0.167
     ------------------------ ATOM   26 ------------------------
     Tr[ns( 26)] =   1.00000
     eigenvalues:
       0.167  0.167  0.167
     eigenvectors (columns):
       1.000  0.000  0.000
       0.000  1.000  0.000
       0.000  0.000  1.000
     occupation matrix ns (before diag.):
       0.167  0.000  0.000
       0.000  0.167  0.000
       0.000  0.000  0.167
     ------------------------ ATOM   27 ------------------------
     Tr[ns( 27)] =   1.00000
     eigenvalues:
       0.167  0.167  0.167
     eigenvectors (columns):
       1.000  0.000  0.000
       0.000  1.000  0.000
       0.000  0.000  1.000
     occupation matrix ns (before diag.):
       0.167  0.000  0.000
       0.000  0.167  0.000
       0.000  0.000  0.167
     ------------------------ ATOM   28 ------------------------
     Tr[ns( 28)] =   1.00000
     eigenvalues:
       0.167  0.167  0.167
     eigenvectors (columns):
       1.000  0.000  0.000
       0.000  1.000  0.000
       0.000  0.000  1.000
     occupation matrix ns (before diag.):
       0.167  0.000  0.000
       0.000  0.167  0.000
       0.000  0.000  0.167
     ------------------------ ATOM   29 ------------------------
     Tr[ns( 29)] =   3.00000
     eigenvalues:
       0.500  0.500  0.500
     eigenvectors (columns):
       1.000  0.000  0.000
       0.000  1.000  0.000
       0.000  0.000  1.000
     occupation matrix ns (before diag.):
       0.500  0.000  0.000
       0.000  0.500  0.000
       0.000  0.000  0.500
     ------------------------ ATOM   30 ------------------------
     Tr[ns( 30)] =   3.00000
     eigenvalues:
       0.500  0.500  0.500
     eigenvectors (columns):
       1.000  0.000  0.000
       0.000  1.000  0.000
       0.000  0.000  1.000
     occupation matrix ns (before diag.):
       0.500  0.000  0.000
       0.000  0.500  0.000
       0.000  0.000  0.500
     ------------------------ ATOM   31 ------------------------
     Tr[ns( 31)] =   3.00000
     eigenvalues:
       0.500  0.500  0.500
     eigenvectors (columns):
       1.000  0.000  0.000
       0.000  1.000  0.000
       0.000  0.000  1.000
     occupation matrix ns (before diag.):
       0.500  0.000  0.000
       0.000  0.500  0.000
       0.000  0.000  0.500
     ------------------------ ATOM   32 ------------------------
     Tr[ns( 32)] =   3.00000
     eigenvalues:
       0.500  0.500  0.500
     eigenvectors (columns):
       1.000  0.000  0.000
       0.000  1.000  0.000
       0.000  0.000  1.000
     occupation matrix ns (before diag.):
       0.500  0.000  0.000
       0.000  0.500  0.000
       0.000  0.000  0.500
     ------------------------ ATOM   33 ------------------------
     Tr[ns( 33)] =   1.00000
     eigenvalues:
       0.167  0.167  0.167
     eigenvectors (columns):
       1.000  0.000  0.000
       0.000  1.000  0.000
       0.000  0.000  1.000
     occupation matrix ns (before diag.):
       0.167  0.000  0.000
       0.000  0.167  0.000
       0.000  0.000  0.167
     ------------------------ ATOM   34 ------------------------
     Tr[ns( 34)] =   1.00000
     eigenvalues:
       0.167  0.167  0.167
     eigenvectors (columns):
       1.000  0.000  0.000
       0.000  1.000  0.000
       0.000  0.000  1.000
     occupation matrix ns (before diag.):
       0.167  0.000  0.000
       0.000  0.167  0.000
       0.000  0.000  0.167
     ------------------------ ATOM   35 ------------------------
     Tr[ns( 35)] =   1.00000
     eigenvalues:
       0.167  0.167  0.167
     eigenvectors (columns):
       1.000  0.000  0.000
       0.000  1.000  0.000
       0.000  0.000  1.000
     occupation matrix ns (before diag.):
       0.167  0.000  0.000
       0.000  0.167  0.000
       0.000  0.000  0.167
     ------------------------ ATOM   36 ------------------------
     Tr[ns( 36)] =   1.00000
     eigenvalues:
       0.167  0.167  0.167
     eigenvectors (columns):
       1.000  0.000  0.000
       0.000  1.000  0.000
       0.000  0.000  1.000
     occupation matrix ns (before diag.):
       0.167  0.000  0.000
       0.000  0.167  0.000
       0.000  0.000  0.167
     ------------------------ ATOM   37 ------------------------
     Tr[ns( 37)] =   3.00000
     eigenvalues:
       0.500  0.500  0.500
     eigenvectors (columns):
       1.000  0.000  0.000
       0.000  1.000  0.000
       0.000  0.000  1.000
     occupation matrix ns (before diag.):
       0.500  0.000  0.000
       0.000  0.500  0.000
       0.000  0.000  0.500
     ------------------------ ATOM   38 ------------------------
     Tr[ns( 38)] =   3.00000
     eigenvalues:
       0.500  0.500  0.500
     eigenvectors (columns):
       1.000  0.000  0.000
       0.000  1.000  0.000
       0.000  0.000  1.000
     occupation matrix ns (before diag.):
       0.500  0.000  0.000
       0.000  0.500  0.000
       0.000  0.000  0.500
     ------------------------ ATOM   39 ------------------------
     Tr[ns( 39)] =   3.00000
     eigenvalues:
       0.500  0.500  0.500
     eigenvectors (columns):
       1.000  0.000  0.000
       0.000  1.000  0.000
       0.000  0.000  1.000
     occupation matrix ns (before diag.):
       0.500  0.000  0.000
       0.000  0.500  0.000
       0.000  0.000  0.500
     ------------------------ ATOM   40 ------------------------
     Tr[ns( 40)] =   3.00000
     eigenvalues:
       0.500  0.500  0.500
     eigenvectors (columns):
       1.000  0.000  0.000
       0.000  1.000  0.000
       0.000  0.000  1.000
     occupation matrix ns (before diag.):
       0.500  0.000  0.000
       0.000  0.500  0.000
       0.000  0.000  0.500
     ------------------------ ATOM   41 ------------------------
     Tr[ns( 41)] =   1.00000
     eigenvalues:
       0.167  0.167  0.167
     eigenvectors (columns):
       1.000  0.000  0.000
       0.000  1.000  0.000
       0.000  0.000  1.000
     occupation matrix ns (before diag.):
       0.167  0.000  0.000
       0.000  0.167  0.000
       0.000  0.000  0.167
     ------------------------ ATOM   42 ------------------------
     Tr[ns( 42)] =   1.00000
     eigenvalues:
       0.167  0.167  0.167
     eigenvectors (columns):
       1.000  0.000  0.000
       0.000  1.000  0.000
       0.000  0.000  1.000
     occupation matrix ns (before diag.):
       0.167  0.000  0.000
       0.000  0.167  0.000
       0.000  0.000  0.167
     ------------------------ ATOM   43 ------------------------
     Tr[ns( 43)] =   1.00000
     eigenvalues:
       0.167  0.167  0.167
     eigenvectors (columns):
       1.000  0.000  0.000
       0.000  1.000  0.000
       0.000  0.000  1.000
     occupation matrix ns (before diag.):
       0.167  0.000  0.000
       0.000  0.167  0.000
       0.000  0.000  0.167
     ------------------------ ATOM   44 ------------------------
     Tr[ns( 44)] =   1.00000
     eigenvalues:
       0.167  0.167  0.167
     eigenvectors (columns):
       1.000  0.000  0.000
       0.000  1.000  0.000
       0.000  0.000  1.000
     occupation matrix ns (before diag.):
       0.167  0.000  0.000
       0.000  0.167  0.000
       0.000  0.000  0.167
     ------------------------ ATOM   45 ------------------------
     Tr[ns( 45)] =   3.00000
     eigenvalues:
       0.500  0.500  0.500
     eigenvectors (columns):
       1.000  0.000  0.000
       0.000  1.000  0.000
       0.000  0.000  1.000
     occupation matrix ns (before diag.):
       0.500  0.000  0.000
       0.000  0.500  0.000
       0.000  0.000  0.500
     ------------------------ ATOM   46 ------------------------
     Tr[ns( 46)] =   3.00000
     eigenvalues:
       0.500  0.500  0.500
     eigenvectors (columns):
       1.000  0.000  0.000
       0.000  1.000  0.000
       0.000  0.000  1.000
     occupation matrix ns (before diag.):
       0.500  0.000  0.000
       0.000  0.500  0.000
       0.000  0.000  0.500
     ------------------------ ATOM   47 ------------------------
     Tr[ns( 47)] =   3.00000
     eigenvalues:
       0.500  0.500  0.500
     eigenvectors (columns):
       1.000  0.000  0.000
       0.000  1.000  0.000
       0.000  0.000  1.000
     occupation matrix ns (before diag.):
       0.500  0.000  0.000
       0.000  0.500  0.000
       0.000  0.000  0.500
     ------------------------ ATOM   48 ------------------------
     Tr[ns( 48)] =   3.00000
     eigenvalues:
       0.500  0.500  0.500
     eigenvectors (columns):
       1.000  0.000  0.000
       0.000  1.000  0.000
       0.000  0.000  1.000
     occupation matrix ns (before diag.):
       0.500  0.000  0.000
       0.000  0.500  0.000
       0.000  0.000  0.500
     ------------------------ ATOM   49 ------------------------
     Tr[ns( 49)] =   1.00000
     eigenvalues:
       0.167  0.167  0.167
     eigenvectors (columns):
       1.000  0.000  0.000
       0.000  1.000  0.000
       0.000  0.000  1.000
     occupation matrix ns (before diag.):
       0.167  0.000  0.000
       0.000  0.167  0.000
       0.000  0.000  0.167
     ------------------------ ATOM   50 ------------------------
     Tr[ns( 50)] =   1.00000
     eigenvalues:
       0.167  0.167  0.167
     eigenvectors (columns):
       1.000  0.000  0.000
       0.000  1.000  0.000
       0.000  0.000  1.000
     occupation matrix ns (before diag.):
       0.167  0.000  0.000
       0.000  0.167  0.000
       0.000  0.000  0.167
     ------------------------ ATOM   51 ------------------------
     Tr[ns( 51)] =   1.00000
     eigenvalues:
       0.167  0.167  0.167
     eigenvectors (columns):
       1.000  0.000  0.000
       0.000  1.000  0.000
       0.000  0.000  1.000
     occupation matrix ns (before diag.):
       0.167  0.000  0.000
       0.000  0.167  0.000
       0.000  0.000  0.167
     ------------------------ ATOM   52 ------------------------
     Tr[ns( 52)] =   1.00000
     eigenvalues:
       0.167  0.167  0.167
     eigenvectors (columns):
       1.000  0.000  0.000
       0.000  1.000  0.000
       0.000  0.000  1.000
     occupation matrix ns (before diag.):
       0.167  0.000  0.000
       0.000  0.167  0.000
       0.000  0.000  0.167
     ------------------------ ATOM   53 ------------------------
     Tr[ns( 53)] =   3.00000
     eigenvalues:
       0.500  0.500  0.500
     eigenvectors (columns):
       1.000  0.000  0.000
       0.000  1.000  0.000
       0.000  0.000  1.000
     occupation matrix ns (before diag.):
       0.500  0.000  0.000
       0.000  0.500  0.000
       0.000  0.000  0.500
     ------------------------ ATOM   54 ------------------------
     Tr[ns( 54)] =   3.00000
     eigenvalues:
       0.500  0.500  0.500
     eigenvectors (columns):
       1.000  0.000  0.000
       0.000  1.000  0.000
       0.000  0.000  1.000
     occupation matrix ns (before diag.):
       0.500  0.000  0.000
       0.000  0.500  0.000
       0.000  0.000  0.500
     ------------------------ ATOM   55 ------------------------
     Tr[ns( 55)] =   3.00000
     eigenvalues:
       0.500  0.500  0.500
     eigenvectors (columns):
       1.000  0.000  0.000
       0.000  1.000  0.000
       0.000  0.000  1.000
     occupation matrix ns (before diag.):
       0.500  0.000  0.000
       0.000  0.500  0.000
       0.000  0.000  0.500
     ------------------------ ATOM   56 ------------------------
     Tr[ns( 56)] =   3.00000
     eigenvalues:
       0.500  0.500  0.500
     eigenvectors (columns):
       1.000  0.000  0.000
       0.000  1.000  0.000
       0.000  0.000  1.000
     occupation matrix ns (before diag.):
       0.500  0.000  0.000
       0.000  0.500  0.000
       0.000  0.000  0.500
     ------------------------ ATOM   57 ------------------------
     Tr[ns( 57)] =   1.00000
     eigenvalues:
       0.167  0.167  0.167
     eigenvectors (columns):
       1.000  0.000  0.000
       0.000  1.000  0.000
       0.000  0.000  1.000
     occupation matrix ns (before diag.):
       0.167  0.000  0.000
       0.000  0.167  0.000
       0.000  0.000  0.167
     ------------------------ ATOM   58 ------------------------
     Tr[ns( 58)] =   1.00000
     eigenvalues:
       0.167  0.167  0.167
     eigenvectors (columns):
       1.000  0.000  0.000
       0.000  1.000  0.000
       0.000  0.000  1.000
     occupation matrix ns (before diag.):
       0.167  0.000  0.000
       0.000  0.167  0.000
       0.000  0.000  0.167
     ------------------------ ATOM   59 ------------------------
     Tr[ns( 59)] =   1.00000
     eigenvalues:
       0.167  0.167  0.167
     eigenvectors (columns):
       1.000  0.000  0.000
       0.000  1.000  0.000
       0.000  0.000  1.000
     occupation matrix ns (before diag.):
       0.167  0.000  0.000
       0.000  0.167  0.000
       0.000  0.000  0.167
     ------------------------ ATOM   60 ------------------------
     Tr[ns( 60)] =   1.00000
     eigenvalues:
       0.167  0.167  0.167
     eigenvectors (columns):
       1.000  0.000  0.000
       0.000  1.000  0.000
       0.000  0.000  1.000
     occupation matrix ns (before diag.):
       0.167  0.000  0.000
       0.000  0.167  0.000
       0.000  0.000  0.167
     ------------------------ ATOM   61 ------------------------
     Tr[ns( 61)] =   3.00000
     eigenvalues:
       0.500  0.500  0.500
     eigenvectors (columns):
       1.000  0.000  0.000
       0.000  1.000  0.000
       0.000  0.000  1.000
     occupation matrix ns (before diag.):
       0.500  0.000  0.000
       0.000  0.500  0.000
       0.000  0.000  0.500
     ------------------------ ATOM   62 ------------------------
     Tr[ns( 62)] =   3.00000
     eigenvalues:
       0.500  0.500  0.500
     eigenvectors (columns):
       1.000  0.000  0.000
       0.000  1.000  0.000
       0.000  0.000  1.000
     occupation matrix ns (before diag.):
       0.500  0.000  0.000
       0.000  0.500  0.000
       0.000  0.000  0.500
     ------------------------ ATOM   63 ------------------------
     Tr[ns( 63)] =   3.00000
     eigenvalues:
       0.500  0.500  0.500
     eigenvectors (columns):
       1.000  0.000  0.000
       0.000  1.000  0.000
       0.000  0.000  1.000
     occupation matrix ns (before diag.):
       0.500  0.000  0.000
       0.000  0.500  0.000
       0.000  0.000  0.500
     ------------------------ ATOM   64 ------------------------
     Tr[ns( 64)] =   3.00000
     eigenvalues:
       0.500  0.500  0.500
     eigenvectors (columns):
       1.000  0.000  0.000
       0.000  1.000  0.000
       0.000  0.000  1.000
     occupation matrix ns (before diag.):
       0.500  0.000  0.000
       0.000  0.500  0.000
       0.000  0.000  0.500
     ------------------------ ATOM   65 ------------------------
     Tr[ns( 65)] =   1.00000
     eigenvalues:
       0.167  0.167  0.167
     eigenvectors (columns):
       1.000  0.000  0.000
       0.000  1.000  0.000
       0.000  0.000  1.000
     occupation matrix ns (before diag.):
       0.167  0.000  0.000
       0.000  0.167  0.000
       0.000  0.000  0.167
     ------------------------ ATOM   66 ------------------------
     Tr[ns( 66)] =   1.00000
     eigenvalues:
       0.167  0.167  0.167
     eigenvectors (columns):
       1.000  0.000  0.000
       0.000  1.000  0.000
       0.000  0.000  1.000
     occupation matrix ns (before diag.):
       0.167  0.000  0.000
       0.000  0.167  0.000
       0.000  0.000  0.167
     ------------------------ ATOM   67 ------------------------
     Tr[ns( 67)] =   1.00000
     eigenvalues:
       0.167  0.167  0.167
     eigenvectors (columns):
       1.000  0.000  0.000
       0.000  1.000  0.000
       0.000  0.000  1.000
     occupation matrix ns (before diag.):
       0.167  0.000  0.000
       0.000  0.167  0.000
       0.000  0.000  0.167
     ------------------------ ATOM   68 ------------------------
     Tr[ns( 68)] =   1.00000
     eigenvalues:
       0.167  0.167  0.167
     eigenvectors (columns):
       1.000  0.000  0.000
       0.000  1.000  0.000
       0.000  0.000  1.000
     occupation matrix ns (before diag.):
       0.167  0.000  0.000
       0.000  0.167  0.000
       0.000  0.000  0.167
     ------------------------ ATOM   69 ------------------------
     Tr[ns( 69)] =   3.00000
     eigenvalues:
       0.500  0.500  0.500
     eigenvectors (columns):
       1.000  0.000  0.000
       0.000  1.000  0.000
       0.000  0.000  1.000
     occupation matrix ns (before diag.):
       0.500  0.000  0.000
       0.000  0.500  0.000
       0.000  0.000  0.500
     ------------------------ ATOM   70 ------------------------
     Tr[ns( 70)] =   3.00000
     eigenvalues:
       0.500  0.500  0.500
     eigenvectors (columns):
       1.000  0.000  0.000
       0.000  1.000  0.000
       0.000  0.000  1.000
     occupation matrix ns (before diag.):
       0.500  0.000  0.000
       0.000  0.500  0.000
       0.000  0.000  0.500
     ------------------------ ATOM   71 ------------------------
     Tr[ns( 71)] =   3.00000
     eigenvalues:
       0.500  0.500  0.500
     eigenvectors (columns):
       1.000  0.000  0.000
       0.000  1.000  0.000
       0.000  0.000  1.000
     occupation matrix ns (before diag.):
       0.500  0.000  0.000
       0.000  0.500  0.000
       0.000  0.000  0.500
     ------------------------ ATOM   72 ------------------------
     Tr[ns( 72)] =   3.00000
     eigenvalues:
       0.500  0.500  0.500
     eigenvectors (columns):
       1.000  0.000  0.000
       0.000  1.000  0.000
       0.000  0.000  1.000
     occupation matrix ns (before diag.):
       0.500  0.000  0.000
       0.000  0.500  0.000
       0.000  0.000  0.500
     ------------------------ ATOM   73 ------------------------
     Tr[ns( 73)] =   1.00000
     eigenvalues:
       0.167  0.167  0.167
     eigenvectors (columns):
       1.000  0.000  0.000
       0.000  1.000  0.000
       0.000  0.000  1.000
     occupation matrix ns (before diag.):
       0.167  0.000  0.000
       0.000  0.167  0.000
       0.000  0.000  0.167
     ------------------------ ATOM   74 ------------------------
     Tr[ns( 74)] =   1.00000
     eigenvalues:
       0.167  0.167  0.167
     eigenvectors (columns):
       1.000  0.000  0.000
       0.000  1.000  0.000
       0.000  0.000  1.000
     occupation matrix ns (before diag.):
       0.167  0.000  0.000
       0.000  0.167  0.000
       0.000  0.000  0.167
     ------------------------ ATOM   75 ------------------------
     Tr[ns( 75)] =   1.00000
     eigenvalues:
       0.167  0.167  0.167
     eigenvectors (columns):
       1.000  0.000  0.000
       0.000  1.000  0.000
       0.000  0.000  1.000
     occupation matrix ns (before diag.):
       0.167  0.000  0.000
       0.000  0.167  0.000
       0.000  0.000  0.167
     ------------------------ ATOM   76 ------------------------
     Tr[ns( 76)] =   1.00000
     eigenvalues:
       0.167  0.167  0.167
     eigenvectors (columns):
       1.000  0.000  0.000
       0.000  1.000  0.000
       0.000  0.000  1.000
     occupation matrix ns (before diag.):
       0.167  0.000  0.000
       0.000  0.167  0.000
       0.000  0.000  0.167
     ------------------------ ATOM   77 ------------------------
     Tr[ns( 77)] =   3.00000
     eigenvalues:
       0.500  0.500  0.500
     eigenvectors (columns):
       1.000  0.000  0.000
       0.000  1.000  0.000
       0.000  0.000  1.000
     occupation matrix ns (before diag.):
       0.500  0.000  0.000
       0.000  0.500  0.000
       0.000  0.000  0.500
     ------------------------ ATOM   78 ------------------------
     Tr[ns( 78)] =   3.00000
     eigenvalues:
       0.500  0.500  0.500
     eigenvectors (columns):
       1.000  0.000  0.000
       0.000  1.000  0.000
       0.000  0.000  1.000
     occupation matrix ns (before diag.):
       0.500  0.000  0.000
       0.000  0.500  0.000
       0.000  0.000  0.500
     ------------------------ ATOM   79 ------------------------
     Tr[ns( 79)] =   3.00000
     eigenvalues:
       0.500  0.500  0.500
     eigenvectors (columns):
       1.000  0.000  0.000
       0.000  1.000  0.000
       0.000  0.000  1.000
     occupation matrix ns (before diag.):
       0.500  0.000  0.000
       0.000  0.500  0.000
       0.000  0.000  0.500
     ------------------------ ATOM   80 ------------------------
     Tr[ns( 80)] =   3.00000
     eigenvalues:
       0.500  0.500  0.500
     eigenvectors (columns):
       1.000  0.000  0.000
       0.000  1.000  0.000
       0.000  0.000  1.000
     occupation matrix ns (before diag.):
       0.500  0.000  0.000
       0.000  0.500  0.000
       0.000  0.000  0.500
     ------------------------ ATOM   81 ------------------------
     Tr[ns( 81)] =   1.00000
     eigenvalues:
       0.167  0.167  0.167
     eigenvectors (columns):
       1.000  0.000  0.000
       0.000  1.000  0.000
       0.000  0.000  1.000
     occupation matrix ns (before diag.):
       0.167  0.000  0.000
       0.000  0.167  0.000
       0.000  0.000  0.167
     ------------------------ ATOM   82 ------------------------
     Tr[ns( 82)] =   1.00000
     eigenvalues:
       0.167  0.167  0.167
     eigenvectors (columns):
       1.000  0.000  0.000
       0.000  1.000  0.000
       0.000  0.000  1.000
     occupation matrix ns (before diag.):
       0.167  0.000  0.000
       0.000  0.167  0.000
       0.000  0.000  0.167
     ------------------------ ATOM   83 ------------------------
     Tr[ns( 83)] =   1.00000
     eigenvalues:
       0.167  0.167  0.167
     eigenvectors (columns):
       1.000  0.000  0.000
       0.000  1.000  0.000
       0.000  0.000  1.000
     occupation matrix ns (before diag.):
       0.167  0.000  0.000
       0.000  0.167  0.000
       0.000  0.000  0.167
     ------------------------ ATOM   84 ------------------------
     Tr[ns( 84)] =   1.00000
     eigenvalues:
       0.167  0.167  0.167
     eigenvectors (columns):
       1.000  0.000  0.000
       0.000  1.000  0.000
       0.000  0.000  1.000
     occupation matrix ns (before diag.):
       0.167  0.000  0.000
       0.000  0.167  0.000
       0.000  0.000  0.167
     ------------------------ ATOM   85 ------------------------
     Tr[ns( 85)] =   3.00000
     eigenvalues:
       0.500  0.500  0.500
     eigenvectors (columns):
       1.000  0.000  0.000
       0.000  1.000  0.000
       0.000  0.000  1.000
     occupation matrix ns (before diag.):
       0.500  0.000  0.000
       0.000  0.500  0.000
       0.000  0.000  0.500
     ------------------------ ATOM   86 ------------------------
     Tr[ns( 86)] =   3.00000
     eigenvalues:
       0.500  0.500  0.500
     eigenvectors (columns):
       1.000  0.000  0.000
       0.000  1.000  0.000
       0.000  0.000  1.000
     occupation matrix ns (before diag.):
       0.500  0.000  0.000
       0.000  0.500  0.000
       0.000  0.000  0.500
     ------------------------ ATOM   87 ------------------------
     Tr[ns( 87)] =   3.00000
     eigenvalues:
       0.500  0.500  0.500
     eigenvectors (columns):
       1.000  0.000  0.000
       0.000  1.000  0.000
       0.000  0.000  1.000
     occupation matrix ns (before diag.):
       0.500  0.000  0.000
       0.000  0.500  0.000
       0.000  0.000  0.500
     ------------------------ ATOM   88 ------------------------
     Tr[ns( 88)] =   3.00000
     eigenvalues:
       0.500  0.500  0.500
     eigenvectors (columns):
       1.000  0.000  0.000
       0.000  1.000  0.000
       0.000  0.000  1.000
     occupation matrix ns (before diag.):
       0.500  0.000  0.000
       0.000  0.500  0.000
       0.000  0.000  0.500
     ------------------------ ATOM   89 ------------------------
     Tr[ns( 89)] =   1.00000
     eigenvalues:
       0.167  0.167  0.167
     eigenvectors (columns):
       1.000  0.000  0.000
       0.000  1.000  0.000
       0.000  0.000  1.000
     occupation matrix ns (before diag.):
       0.167  0.000  0.000
       0.000  0.167  0.000
       0.000  0.000  0.167
     ------------------------ ATOM   90 ------------------------
     Tr[ns( 90)] =   1.00000
     eigenvalues:
       0.167  0.167  0.167
     eigenvectors (columns):
       1.000  0.000  0.000
       0.000  1.000  0.000
       0.000  0.000  1.000
     occupation matrix ns (before diag.):
       0.167  0.000  0.000
       0.000  0.167  0.000
       0.000  0.000  0.167
     ------------------------ ATOM   91 ------------------------
     Tr[ns( 91)] =   1.00000
     eigenvalues:
       0.167  0.167  0.167
     eigenvectors (columns):
       1.000  0.000  0.000
       0.000  1.000  0.000
       0.000  0.000  1.000
     occupation matrix ns (before diag.):
       0.167  0.000  0.000
       0.000  0.167  0.000
       0.000  0.000  0.167
     ------------------------ ATOM   92 ------------------------
     Tr[ns( 92)] =   1.00000
     eigenvalues:
       0.167  0.167  0.167
     eigenvectors (columns):
       1.000  0.000  0.000
       0.000  1.000  0.000
       0.000  0.000  1.000
     occupation matrix ns (before diag.):
       0.167  0.000  0.000
       0.000  0.167  0.000
       0.000  0.000  0.167
     ------------------------ ATOM   93 ------------------------
     Tr[ns( 93)] =   3.00000
     eigenvalues:
       0.500  0.500  0.500
     eigenvectors (columns):
       1.000  0.000  0.000
       0.000  1.000  0.000
       0.000  0.000  1.000
     occupation matrix ns (before diag.):
       0.500  0.000  0.000
       0.000  0.500  0.000
       0.000  0.000  0.500
     ------------------------ ATOM   94 ------------------------
     Tr[ns( 94)] =   3.00000
     eigenvalues:
       0.500  0.500  0.500
     eigenvectors (columns):
       1.000  0.000  0.000
       0.000  1.000  0.000
       0.000  0.000  1.000
     occupation matrix ns (before diag.):
       0.500  0.000  0.000
       0.000  0.500  0.000
       0.000  0.000  0.500
     ------------------------ ATOM   95 ------------------------
     Tr[ns( 95)] =   3.00000
     eigenvalues:
       0.500  0.500  0.500
     eigenvectors (columns):
       1.000  0.000  0.000
       0.000  1.000  0.000
       0.000  0.000  1.000
     occupation matrix ns (before diag.):
       0.500  0.000  0.000
       0.000  0.500  0.000
       0.000  0.000  0.500
     ------------------------ ATOM   96 ------------------------
     Tr[ns( 96)] =   3.00000
     eigenvalues:
       0.500  0.500  0.500
     eigenvectors (columns):
       1.000  0.000  0.000
       0.000  1.000  0.000
       0.000  0.000  1.000
     occupation matrix ns (before diag.):
       0.500  0.000  0.000
       0.000  0.500  0.000
       0.000  0.000  0.500
     ------------------------ ATOM   97 ------------------------
     Tr[ns( 97)] =   1.00000
     eigenvalues:
       0.167  0.167  0.167
     eigenvectors (columns):
       1.000  0.000  0.000
       0.000  1.000  0.000
       0.000  0.000  1.000
     occupation matrix ns (before diag.):
       0.167  0.000  0.000
       0.000  0.167  0.000
       0.000  0.000  0.167
     ------------------------ ATOM   98 ------------------------
     Tr[ns( 98)] =   1.00000
     eigenvalues:
       0.167  0.167  0.167
     eigenvectors (columns):
       1.000  0.000  0.000
       0.000  1.000  0.000
       0.000  0.000  1.000
     occupation matrix ns (before diag.):
       0.167  0.000  0.000
       0.000  0.167  0.000
       0.000  0.000  0.167
     ------------------------ ATOM   99 ------------------------
     Tr[ns( 99)] =   1.00000
     eigenvalues:
       0.167  0.167  0.167
     eigenvectors (columns):
       1.000  0.000  0.000
       0.000  1.000  0.000
       0.000  0.000  1.000
     occupation matrix ns (before diag.):
       0.167  0.000  0.000
       0.000  0.167  0.000
       0.000  0.000  0.167
     ------------------------ ATOM  100 ------------------------
     Tr[ns(100)] =   1.00000
     eigenvalues:
       0.167  0.167  0.167
     eigenvectors (columns):
       1.000  0.000  0.000
       0.000  1.000  0.000
       0.000  0.000  1.000
     occupation matrix ns (before diag.):
       0.167  0.000  0.000
       0.000  0.167  0.000
       0.000  0.000  0.167
     ------------------------ ATOM  101 ------------------------
     Tr[ns(101)] =   3.00000
     eigenvalues:
       0.500  0.500  0.500
     eigenvectors (columns):
       1.000  0.000  0.000
       0.000  1.000  0.000
       0.000  0.000  1.000
     occupation matrix ns (before diag.):
       0.500  0.000  0.000
       0.000  0.500  0.000
       0.000  0.000  0.500
     ------------------------ ATOM  102 ------------------------
     Tr[ns(102)] =   3.00000
     eigenvalues:
       0.500  0.500  0.500
     eigenvectors (columns):
       1.000  0.000  0.000
       0.000  1.000  0.000
       0.000  0.000  1.000
     occupation matrix ns (before diag.):
       0.500  0.000  0.000
       0.000  0.500  0.000
       0.000  0.000  0.500
     ------------------------ ATOM  103 ------------------------
     Tr[ns(103)] =   3.00000
     eigenvalues:
       0.500  0.500  0.500
     eigenvectors (columns):
       1.000  0.000  0.000
       0.000  1.000  0.000
       0.000  0.000  1.000
     occupation matrix ns (before diag.):
       0.500  0.000  0.000
       0.000  0.500  0.000
       0.000  0.000  0.500
     ------------------------ ATOM  104 ------------------------
     Tr[ns(104)] =   3.00000
     eigenvalues:
       0.500  0.500  0.500
     eigenvectors (columns):
       1.000  0.000  0.000
       0.000  1.000  0.000
       0.000  0.000  1.000
     occupation matrix ns (before diag.):
       0.500  0.000  0.000
       0.000  0.500  0.000
       0.000  0.000  0.500
     ------------------------ ATOM  105 ------------------------
     Tr[ns(105)] =   1.00000
     eigenvalues:
       0.167  0.167  0.167
     eigenvectors (columns):
       1.000  0.000  0.000
       0.000  1.000  0.000
       0.000  0.000  1.000
     occupation matrix ns (before diag.):
       0.167  0.000  0.000
       0.000  0.167  0.000
       0.000  0.000  0.167
     ------------------------ ATOM  106 ------------------------
     Tr[ns(106)] =   1.00000
     eigenvalues:
       0.167  0.167  0.167
     eigenvectors (columns):
       1.000  0.000  0.000
       0.000  1.000  0.000
       0.000  0.000  1.000
     occupation matrix ns (before diag.):
       0.167  0.000  0.000
       0.000  0.167  0.000
       0.000  0.000  0.167
     ------------------------ ATOM  107 ------------------------
     Tr[ns(107)] =   1.00000
     eigenvalues:
       0.167  0.167  0.167
     eigenvectors (columns):
       1.000  0.000  0.000
       0.000  1.000  0.000
       0.000  0.000  1.000
     occupation matrix ns (before diag.):
       0.167  0.000  0.000
       0.000  0.167  0.000
       0.000  0.000  0.167
     ------------------------ ATOM  108 ------------------------
     Tr[ns(108)] =   1.00000
     eigenvalues:
       0.167  0.167  0.167
     eigenvectors (columns):
       1.000  0.000  0.000
       0.000  1.000  0.000
       0.000  0.000  1.000
     occupation matrix ns (before diag.):
       0.167  0.000  0.000
       0.000  0.167  0.000
       0.000  0.000  0.167
     ------------------------ ATOM  109 ------------------------
     Tr[ns(109)] =   3.00000
     eigenvalues:
       0.500  0.500  0.500
     eigenvectors (columns):
       1.000  0.000  0.000
       0.000  1.000  0.000
       0.000  0.000  1.000
     occupation matrix ns (before diag.):
       0.500  0.000  0.000
       0.000  0.500  0.000
       0.000  0.000  0.500
     ------------------------ ATOM  110 ------------------------
     Tr[ns(110)] =   3.00000
     eigenvalues:
       0.500  0.500  0.500
     eigenvectors (columns):
       1.000  0.000  0.000
       0.000  1.000  0.000
       0.000  0.000  1.000
     occupation matrix ns (before diag.):
       0.500  0.000  0.000
       0.000  0.500  0.000
       0.000  0.000  0.500
     ------------------------ ATOM  111 ------------------------
     Tr[ns(111)] =   3.00000
     eigenvalues:
       0.500  0.500  0.500
     eigenvectors (columns):
       1.000  0.000  0.000
       0.000  1.000  0.000
       0.000  0.000  1.000
     occupation matrix ns (before diag.):
       0.500  0.000  0.000
       0.000  0.500  0.000
       0.000  0.000  0.500
     ------------------------ ATOM  112 ------------------------
     Tr[ns(112)] =   3.00000
     eigenvalues:
       0.500  0.500  0.500
     eigenvectors (columns):
       1.000  0.000  0.000
       0.000  1.000  0.000
       0.000  0.000  1.000
     occupation matrix ns (before diag.):
       0.500  0.000  0.000
       0.000  0.500  0.000
       0.000  0.000  0.500
     ------------------------ ATOM  113 ------------------------
     Tr[ns(113)] =   1.00000
     eigenvalues:
       0.167  0.167  0.167
     eigenvectors (columns):
       1.000  0.000  0.000
       0.000  1.000  0.000
       0.000  0.000  1.000
     occupation matrix ns (before diag.):
       0.167  0.000  0.000
       0.000  0.167  0.000
       0.000  0.000  0.167
     ------------------------ ATOM  114 ------------------------
     Tr[ns(114)] =   1.00000
     eigenvalues:
       0.167  0.167  0.167
     eigenvectors (columns):
       1.000  0.000  0.000
       0.000  1.000  0.000
       0.000  0.000  1.000
     occupation matrix ns (before diag.):
       0.167  0.000  0.000
       0.000  0.167  0.000
       0.000  0.000  0.167
     ------------------------ ATOM  115 ------------------------
     Tr[ns(115)] =   1.00000
     eigenvalues:
       0.167  0.167  0.167
     eigenvectors (columns):
       1.000  0.000  0.000
       0.000  1.000  0.000
       0.000  0.000  1.000
     occupation matrix ns (before diag.):
       0.167  0.000  0.000
       0.000  0.167  0.000
       0.000  0.000  0.167
     ------------------------ ATOM  116 ------------------------
     Tr[ns(116)] =   1.00000
     eigenvalues:
       0.167  0.167  0.167
     eigenvectors (columns):
       1.000  0.000  0.000
       0.000  1.000  0.000
       0.000  0.000  1.000
     occupation matrix ns (before diag.):
       0.167  0.000  0.000
       0.000  0.167  0.000
       0.000  0.000  0.167
     ------------------------ ATOM  117 ------------------------
     Tr[ns(117)] =   3.00000
     eigenvalues:
       0.500  0.500  0.500
     eigenvectors (columns):
       1.000  0.000  0.000
       0.000  1.000  0.000
       0.000  0.000  1.000
     occupation matrix ns (before diag.):
       0.500  0.000  0.000
       0.000  0.500  0.000
       0.000  0.000  0.500
     ------------------------ ATOM  118 ------------------------
     Tr[ns(118)] =   3.00000
     eigenvalues:
       0.500  0.500  0.500
     eigenvectors (columns):
       1.000  0.000  0.000
       0.000  1.000  0.000
       0.000  0.000  1.000
     occupation matrix ns (before diag.):
       0.500  0.000  0.000
       0.000  0.500  0.000
       0.000  0.000  0.500
     ------------------------ ATOM  119 ------------------------
     Tr[ns(119)] =   3.00000
     eigenvalues:
       0.500  0.500  0.500
     eigenvectors (columns):
       1.000  0.000  0.000
       0.000  1.000  0.000
       0.000  0.000  1.000
     occupation matrix ns (before diag.):
       0.500  0.000  0.000
       0.000  0.500  0.000
       0.000  0.000  0.500
     ------------------------ ATOM  120 ------------------------
     Tr[ns(120)] =   3.00000
     eigenvalues:
       0.500  0.500  0.500
     eigenvectors (columns):
       1.000  0.000  0.000
       0.000  1.000  0.000
       0.000  0.000  1.000
     occupation matrix ns (before diag.):
       0.500  0.000  0.000
       0.000  0.500  0.000
       0.000  0.000  0.500
     ------------------------ ATOM  121 ------------------------
     Tr[ns(121)] =   1.00000
     eigenvalues:
       0.167  0.167  0.167
     eigenvectors (columns):
       1.000  0.000  0.000
       0.000  1.000  0.000
       0.000  0.000  1.000
     occupation matrix ns (before diag.):
       0.167  0.000  0.000
       0.000  0.167  0.000
       0.000  0.000  0.167
     ------------------------ ATOM  122 ------------------------
     Tr[ns(122)] =   1.00000
     eigenvalues:
       0.167  0.167  0.167
     eigenvectors (columns):
       1.000  0.000  0.000
       0.000  1.000  0.000
       0.000  0.000  1.000
     occupation matrix ns (before diag.):
       0.167  0.000  0.000
       0.000  0.167  0.000
       0.000  0.000  0.167
     ------------------------ ATOM  123 ------------------------
     Tr[ns(123)] =   1.00000
     eigenvalues:
       0.167  0.167  0.167
     eigenvectors (columns):
       1.000  0.000  0.000
       0.000  1.000  0.000
       0.000  0.000  1.000
     occupation matrix ns (before diag.):
       0.167  0.000  0.000
       0.000  0.167  0.000
       0.000  0.000  0.167
     ------------------------ ATOM  124 ------------------------
     Tr[ns(124)] =   1.00000
     eigenvalues:
       0.167  0.167  0.167
     eigenvectors (columns):
       1.000  0.000  0.000
       0.000  1.000  0.000
       0.000  0.000  1.000
     occupation matrix ns (before diag.):
       0.167  0.000  0.000
       0.000  0.167  0.000
       0.000  0.000  0.167
     ------------------------ ATOM  125 ------------------------
     Tr[ns(125)] =   3.00000
     eigenvalues:
       0.500  0.500  0.500
     eigenvectors (columns):
       1.000  0.000  0.000
       0.000  1.000  0.000
       0.000  0.000  1.000
     occupation matrix ns (before diag.):
       0.500  0.000  0.000
       0.000  0.500  0.000
       0.000  0.000  0.500
     ------------------------ ATOM  126 ------------------------
     Tr[ns(126)] =   3.00000
     eigenvalues:
       0.500  0.500  0.500
     eigenvectors (columns):
       1.000  0.000  0.000
       0.000  1.000  0.000
       0.000  0.000  1.000
     occupation matrix ns (before diag.):
       0.500  0.000  0.000
       0.000  0.500  0.000
       0.000  0.000  0.500
     ------------------------ ATOM  127 ------------------------
     Tr[ns(127)] =   3.00000
     eigenvalues:
       0.500  0.500  0.500
     eigenvectors (columns):
       1.000  0.000  0.000
       0.000  1.000  0.000
       0.000  0.000  1.000
     occupation matrix ns (before diag.):
       0.500  0.000  0.000
       0.000  0.500  0.000
       0.000  0.000  0.500
     ------------------------ ATOM  128 ------------------------
     Tr[ns(128)] =   3.00000
     eigenvalues:
       0.500  0.500  0.500
     eigenvectors (columns):
       1.000  0.000  0.000
       0.000  1.000  0.000
       0.000  0.000  1.000
     occupation matrix ns (before diag.):
       0.500  0.000  0.000
       0.000  0.500  0.000
       0.000  0.000  0.500
     ------------------------ ATOM  129 ------------------------
     Tr[ns(129)] =   1.00000
     eigenvalues:
       0.167  0.167  0.167
     eigenvectors (columns):
       1.000  0.000  0.000
       0.000  1.000  0.000
       0.000  0.000  1.000
     occupation matrix ns (before diag.):
       0.167  0.000  0.000
       0.000  0.167  0.000
       0.000  0.000  0.167
     ------------------------ ATOM  130 ------------------------
     Tr[ns(130)] =   1.00000
     eigenvalues:
       0.167  0.167  0.167
     eigenvectors (columns):
       1.000  0.000  0.000
       0.000  1.000  0.000
       0.000  0.000  1.000
     occupation matrix ns (before diag.):
       0.167  0.000  0.000
       0.000  0.167  0.000
       0.000  0.000  0.167
     ------------------------ ATOM  131 ------------------------
     Tr[ns(131)] =   1.00000
     eigenvalues:
       0.167  0.167  0.167
     eigenvectors (columns):
       1.000  0.000  0.000
       0.000  1.000  0.000
       0.000  0.000  1.000
     occupation matrix ns (before diag.):
       0.167  0.000  0.000
       0.000  0.167  0.000
       0.000  0.000  0.167
     ------------------------ ATOM  132 ------------------------
     Tr[ns(132)] =   1.00000
     eigenvalues:
       0.167  0.167  0.167
     eigenvectors (columns):
       1.000  0.000  0.000
       0.000  1.000  0.000
       0.000  0.000  1.000
     occupation matrix ns (before diag.):
       0.167  0.000  0.000
       0.000  0.167  0.000
       0.000  0.000  0.167
     ------------------------ ATOM  133 ------------------------
     Tr[ns(133)] =   3.00000
     eigenvalues:
       0.500  0.500  0.500
     eigenvectors (columns):
       1.000  0.000  0.000
       0.000  1.000  0.000
       0.000  0.000  1.000
     occupation matrix ns (before diag.):
       0.500  0.000  0.000
       0.000  0.500  0.000
       0.000  0.000  0.500
     ------------------------ ATOM  134 ------------------------
     Tr[ns(134)] =   3.00000
     eigenvalues:
       0.500  0.500  0.500
     eigenvectors (columns):
       1.000  0.000  0.000
       0.000  1.000  0.000
       0.000  0.000  1.000
     occupation matrix ns (before diag.):
       0.500  0.000  0.000
       0.000  0.500  0.000
       0.000  0.000  0.500
     ------------------------ ATOM  135 ------------------------
     Tr[ns(135)] =   3.00000
     eigenvalues:
       0.500  0.500  0.500
     eigenvectors (columns):
       1.000  0.000  0.000
       0.000  1.000  0.000
       0.000  0.000  1.000
     occupation matrix ns (before diag.):
       0.500  0.000  0.000
       0.000  0.500  0.000
       0.000  0.000  0.500
     ------------------------ ATOM  136 ------------------------
     Tr[ns(136)] =   3.00000
     eigenvalues:
       0.500  0.500  0.500
     eigenvectors (columns):
       1.000  0.000  0.000
       0.000  1.000  0.000
       0.000  0.000  1.000
     occupation matrix ns (before diag.):
       0.500  0.000  0.000
       0.000  0.500  0.000
       0.000  0.000  0.500
     ------------------------ ATOM  137 ------------------------
     Tr[ns(137)] =   1.00000
     eigenvalues:
       0.167  0.167  0.167
     eigenvectors (columns):
       1.000  0.000  0.000
       0.000  1.000  0.000
       0.000  0.000  1.000
     occupation matrix ns (before diag.):
       0.167  0.000  0.000
       0.000  0.167  0.000
       0.000  0.000  0.167
     ------------------------ ATOM  138 ------------------------
     Tr[ns(138)] =   1.00000
     eigenvalues:
       0.167  0.167  0.167
     eigenvectors (columns):
       1.000  0.000  0.000
       0.000  1.000  0.000
       0.000  0.000  1.000
     occupation matrix ns (before diag.):
       0.167  0.000  0.000
       0.000  0.167  0.000
       0.000  0.000  0.167
     ------------------------ ATOM  139 ------------------------
     Tr[ns(139)] =   1.00000
     eigenvalues:
       0.167  0.167  0.167
     eigenvectors (columns):
       1.000  0.000  0.000
       0.000  1.000  0.000
       0.000  0.000  1.000
     occupation matrix ns (before diag.):
       0.167  0.000  0.000
       0.000  0.167  0.000
       0.000  0.000  0.167
     ------------------------ ATOM  140 ------------------------
     Tr[ns(140)] =   1.00000
     eigenvalues:
       0.167  0.167  0.167
     eigenvectors (columns):
       1.000  0.000  0.000
       0.000  1.000  0.000
       0.000  0.000  1.000
     occupation matrix ns (before diag.):
       0.167  0.000  0.000
       0.000  0.167  0.000
       0.000  0.000  0.167
     ------------------------ ATOM  141 ------------------------
     Tr[ns(141)] =   3.00000
     eigenvalues:
       0.500  0.500  0.500
     eigenvectors (columns):
       1.000  0.000  0.000
       0.000  1.000  0.000
       0.000  0.000  1.000
     occupation matrix ns (before diag.):
       0.500  0.000  0.000
       0.000  0.500  0.000
       0.000  0.000  0.500
     ------------------------ ATOM  142 ------------------------
     Tr[ns(142)] =   3.00000
     eigenvalues:
       0.500  0.500  0.500
     eigenvectors (columns):
       1.000  0.000  0.000
       0.000  1.000  0.000
       0.000  0.000  1.000
     occupation matrix ns (before diag.):
       0.500  0.000  0.000
       0.000  0.500  0.000
       0.000  0.000  0.500
     ------------------------ ATOM  143 ------------------------
     Tr[ns(143)] =   3.00000
     eigenvalues:
       0.500  0.500  0.500
     eigenvectors (columns):
       1.000  0.000  0.000
       0.000  1.000  0.000
       0.000  0.000  1.000
     occupation matrix ns (before diag.):
       0.500  0.000  0.000
       0.000  0.500  0.000
       0.000  0.000  0.500
     ------------------------ ATOM  144 ------------------------
     Tr[ns(144)] =   3.00000
     eigenvalues:
       0.500  0.500  0.500
     eigenvectors (columns):
       1.000  0.000  0.000
       0.000  1.000  0.000
       0.000  0.000  1.000
     occupation matrix ns (before diag.):
       0.500  0.000  0.000
       0.000  0.500  0.000
       0.000  0.000  0.500
     ------------------------ ATOM  145 ------------------------
     Tr[ns(145)] =   1.00000
     eigenvalues:
       0.167  0.167  0.167
     eigenvectors (columns):
       1.000  0.000  0.000
       0.000  1.000  0.000
       0.000  0.000  1.000
     occupation matrix ns (before diag.):
       0.167  0.000  0.000
       0.000  0.167  0.000
       0.000  0.000  0.167
     ------------------------ ATOM  146 ------------------------
     Tr[ns(146)] =   1.00000
     eigenvalues:
       0.167  0.167  0.167
     eigenvectors (columns):
       1.000  0.000  0.000
       0.000  1.000  0.000
       0.000  0.000  1.000
     occupation matrix ns (before diag.):
       0.167  0.000  0.000
       0.000  0.167  0.000
       0.000  0.000  0.167
     ------------------------ ATOM  147 ------------------------
     Tr[ns(147)] =   1.00000
     eigenvalues:
       0.167  0.167  0.167
     eigenvectors (columns):
       1.000  0.000  0.000
       0.000  1.000  0.000
       0.000  0.000  1.000
     occupation matrix ns (before diag.):
       0.167  0.000  0.000
       0.000  0.167  0.000
       0.000  0.000  0.167
     ------------------------ ATOM  148 ------------------------
     Tr[ns(148)] =   1.00000
     eigenvalues:
       0.167  0.167  0.167
     eigenvectors (columns):
       1.000  0.000  0.000
       0.000  1.000  0.000
       0.000  0.000  1.000
     occupation matrix ns (before diag.):
       0.167  0.000  0.000
       0.000  0.167  0.000
       0.000  0.000  0.167
     ------------------------ ATOM  149 ------------------------
     Tr[ns(149)] =   3.00000
     eigenvalues:
       0.500  0.500  0.500
     eigenvectors (columns):
       1.000  0.000  0.000
       0.000  1.000  0.000
       0.000  0.000  1.000
     occupation matrix ns (before diag.):
       0.500  0.000  0.000
       0.000  0.500  0.000
       0.000  0.000  0.500
     ------------------------ ATOM  150 ------------------------
     Tr[ns(150)] =   3.00000
     eigenvalues:
       0.500  0.500  0.500
     eigenvectors (columns):
       1.000  0.000  0.000
       0.000  1.000  0.000
       0.000  0.000  1.000
     occupation matrix ns (before diag.):
       0.500  0.000  0.000
       0.000  0.500  0.000
       0.000  0.000  0.500
     ------------------------ ATOM  151 ------------------------
     Tr[ns(151)] =   3.00000
     eigenvalues:
       0.500  0.500  0.500
     eigenvectors (columns):
       1.000  0.000  0.000
       0.000  1.000  0.000
       0.000  0.000  1.000
     occupation matrix ns (before diag.):
       0.500  0.000  0.000
       0.000  0.500  0.000
       0.000  0.000  0.500
     ------------------------ ATOM  152 ------------------------
[...]
   -20.5947 -20.5946 -20.5946 -20.5945 -20.5943 -20.5943 -20.5941 -20.5941
   -20.5940 -20.5939 -20.5938 -20.5937 -20.5936 -20.5934 -20.5932 -20.5932
   -20.5930 -20.5930 -20.5928 -20.5928 -20.5926 -20.5925 -20.5925 -20.5924
   -20.5923 -20.5922 -20.5921 -20.5918 -20.5918 -20.5917 -20.5916 -20.5916
   -20.5914 -20.5913 -20.5912 -20.5911 -20.5910 -20.5910 -20.5910 -20.5910
   -20.5908 -20.5907 -20.5905 -20.5905 -20.5904 -20.5901 -20.5900 -20.5899
   -20.5898 -20.5898 -20.5897 -20.5895 -20.5894 -20.5894 -20.5893 -20.5893
   -20.5892 -20.5890 -20.5887 -20.5886 -20.5885 -20.5884 -20.5883 -20.5881
   -20.5880 -20.5880 -20.5880 -20.5879 -20.5878 -20.5877 -20.5876 -20.5875
   -20.5875 -20.5874 -20.5874 -20.5873 -20.5873 -20.5870 -20.5869 -20.5869
   -20.5867 -20.5864 -20.5861 -20.5860 -20.5860 -20.5858 -20.5857 -20.5856
   -20.5856 -20.5855 -20.5855 -20.5853 -20.5853 -20.5850 -20.5847 -20.5845
   -20.5845 -20.5839 -20.5838 -20.5837 -20.5835 -20.5835 -20.5833 -20.5833
   -20.5832 -20.5832 -20.5827 -20.5827 -20.5827 -20.5825 -20.5825 -20.5824
   -20.5823 -20.5822 -20.5821 -20.5820 -20.5818 -20.5817 -20.5815 -20.5813
   -20.5811 -20.5811 -20.5805 -20.5801 -20.5800 -20.5798 -20.5793 -20.5790
   -20.5788 -20.5788 -20.5787 -20.5787 -20.5785 -20.5784 -20.5781 -20.5779
   -20.5778 -20.5776 -20.5774 -20.5774 -20.5772 -20.5771 -20.5767 -20.5766
   -20.5764 -20.5763 -20.5762 -20.5761 -20.5756 -20.5755 -20.5753 -20.5752
   -20.5749 -20.5748 -20.5746 -20.5745 -20.5744 -20.5741 -20.5740 -20.5739
   -20.5738 -20.5737 -20.5734 -20.5734 -20.5734 -20.5732 -20.5730 -20.5730
   -20.5726 -20.5726 -20.5724 -20.5717 -20.5717 -20.5716 -20.5714 -20.5713
   -20.5712 -20.5712 -20.5711 -20.5709 -20.5702 -20.5695 -20.5694 -20.5687
   -20.5686 -20.5685 -20.5674 -20.5670 -20.5669 -20.5661 -20.5660 -20.5654
   -20.5650 -20.5645 -20.5644 -20.5640 -20.5636 -20.5627 -20.5600 -20.5598
   -20.5594 -20.5590 -20.5564 -20.5563  -7.5396  -7.5352  -7.5340  -7.5324
    -7.5310  -7.5261  -7.5234  -7.5230  -7.5214  -7.5210  -7.5198  -7.5191
    -7.5178  -7.5166  -7.5130  -7.5106  -7.5096  -7.5069  -7.5050  -7.5036
    -7.5029  -7.5013  -7.5004  -7.4966  -7.4912  -7.4890  -7.4880  -7.4863
    -7.4803  -7.4789  -7.4784  -7.4766  -7.4751  -7.4714  -7.4709  -7.4688
    -7.4671  -7.4661  -7.4655  -7.4648  -7.4640  -7.4631  -7.4625  -7.4617
    -7.4608  -7.4607  -7.4596  -7.4593  -7.4589  -7.4586  -7.4567  -7.4565
    -7.4558  -7.4551  -7.4545  -7.4536  -7.4530  -7.4523  -7.4519  -7.4514
    -7.4511  -7.4500  -7.4496  -7.4494  -7.4484  -7.4479  -7.4476  -7.4466
    -7.4465  -7.4456  -7.4452  -7.4450  -7.4448  -7.4442  -7.4430  -7.4425
    -7.4419  -7.4414  -7.4404  -7.4402  -7.4398  -7.4398  -7.4393  -7.4387
    -7.4380  -7.4378  -7.4376  -7.4373  -7.4370  -7.4365  -7.4358  -7.4356
    -7.4349  -7.4347  -7.4341  -7.4336  -7.4335  -7.4328  -7.4326  -7.4318
    -7.4315  -7.4312  -7.4305  -7.4299  -7.4297  -7.4295  -7.4285  -7.4283
    -7.4275  -7.4273  -7.4270  -7.4267  -7.4260  -7.4258  -7.4253  -7.4248
    -7.4241  -7.4239  -7.4238  -7.4231  -7.4227  -7.4217  -7.4216  -7.4206
    -7.4205  -7.4200  -7.4197  -7.4192  -7.4190  -7.4187  -7.4182  -7.4179
    -7.4175  -7.4168  -7.4166  -7.4163  -7.4162  -7.4156  -7.4149  -7.4144
    -7.4139  -7.4137  -7.4133  -7.4124  -7.4121  -7.4118  -7.4116  -7.4110
    -7.4103  -7.4100  -7.4098  -7.4091  -7.4088  -7.4085  -7.4079  -7.4075
    -7.4071  -7.4068  -7.4067  -7.4064  -7.4057  -7.4055  -7.4054  -7.4047
    -7.4041  -7.4037  -7.4036  -7.4032  -7.4031  -7.4026  -7.4022  -7.4021
    -7.4017  -7.4016  -7.4009  -7.4005  -7.4003  -7.3997  -7.3994  -7.3986
    -7.3986  -7.3982  -7.3977  -7.3975  -7.3971  -7.3968  -7.3963  -7.3962
    -7.3959  -7.3954  -7.3951  -7.3949  -7.3946  -7.3944  -7.3941  -7.3938
    -7.3934  -7.3932  -7.3928  -7.3927  -7.3924  -7.3917  -7.3913  -7.3911
    -7.3908  -7.3907  -7.3900  -7.3897  -7.3895  -7.3891  -7.3891  -7.3886
    -7.3880  -7.3873  -7.3872  -7.3870  -7.3867  -7.3863  -7.3860  -7.3859
    -7.3853  -7.3849  -7.3847  -7.3844  -7.3839  -7.3839  -7.3838  -7.3835
    -7.3828  -7.3826  -7.3823  -7.3819  -7.3815  -7.3813  -7.3807  -7.3805
    -7.3801  -7.3800  -7.3795  -7.3792  -7.3790  -7.3786  -7.3783  -7.3781
    -7.3777  -7.3776  -7.3770  -7.3769  -7.3767  -7.3766  -7.3764  -7.3759
    -7.3754  -7.3753  -7.3749  -7.3744  -7.3743  -7.3743  -7.3739  -7.3735
    -7.3731  -7.3728  -7.3726  -7.3725  -7.3720  -7.3718  -7.3716  -7.3713
    -7.3711  -7.3709  -7.3705  -7.3703  -7.3697  -7.3697  -7.3692  -7.3690
    -7.3690  -7.3685  -7.3681  -7.3679  -7.3675  -7.3672  -7.3668  -7.3665
    -7.3660  -7.3659  -7.3655  -7.3652  -7.3649  -7.3647  -7.3639  -7.3635
    -7.3633  -7.3633  -7.3631  -7.3628  -7.3622  -7.3618  -7.3617  -7.3613
    -7.3610  -7.3602  -7.3598  -7.3594  -7.3591  -7.3589  -7.3585  -7.3581
    -7.3578  -7.3575  -7.3573  -7.3572  -7.3569  -7.3561  -7.3560  -7.3557
    -7.3556  -7.3554  -7.3547  -7.3543  -7.3538  -7.3534  -7.3533  -7.3526
    -7.3522  -7.3521  -7.3516  -7.3512  -7.3510  -7.3507  -7.3501  -7.3499
    -7.3497  -7.3492  -7.3491  -7.3487  -7.3484  -7.3478  -7.3474  -7.3472
    -7.3470  -7.3467  -7.3464  -7.3460  -7.3456  -7.3451  -7.3450  -7.3448
    -7.3443  -7.3433  -7.3430  -7.3428  -7.3421  -7.3418  -7.3417  -7.3413
    -7.3411  -7.3407  -7.3402  -7.3397  -7.3395  -7.3392  -7.3390  -7.3385
    -7.3384  -7.3377  -7.3374  -7.3374  -7.3369  -7.3367  -7.3363  -7.3359
    -7.3358  -7.3356  -7.3351  -7.3348  -7.3345  -7.3343  -7.3342  -7.3336
    -7.3334  -7.3332  -7.3328  -7.3325  -7.3323  -7.3320  -7.3314  -7.3312
    -7.3306  -7.3304  -7.3301  -7.3298  -7.3297  -7.3293  -7.3290  -7.3286
    -7.3284  -7.3279  -7.3275  -7.3269  -7.3267  -7.3264  -7.3263  -7.3258
    -7.3255  -7.3254  -7.3253  -7.3252  -7.3248  -7.3246  -7.3242  -7.3239
    -7.3236  -7.3231  -7.3227  -7.3225  -7.3222  -7.3220  -7.3216  -7.3215
    -7.3211  -7.3207  -7.3204  -7.3202  -7.3195  -7.3193  -7.3192  -7.3186
    -7.3184  -7.3182  -7.3180  -7.3175  -7.3175  -7.3172  -7.3171  -7.3164
    -7.3163  -7.3160  -7.3155  -7.3154  -7.3153  -7.3152  -7.3147  -7.3141
    -7.3139  -7.3130  -7.3128  -7.3124  -7.3120  -7.3120  -7.3118  -7.3115
    -7.3112  -7.3109  -7.3106  -7.3099  -7.3098  -7.3093  -7.3085  -7.3077
    -7.3077  -7.3071  -7.3064  -7.3056  -7.3053  -7.3051  -7.3046  -7.3046
    -7.3045  -7.3036  -7.3025  -7.3023  -7.3021  -7.3015  -7.3011  -7.3006
    -7.3005  -7.2991  -7.2987  -7.2982  -7.2975  -7.2972  -7.2971  -7.2965
    -7.2963  -7.2959  -7.2958  -7.2952  -7.2940  -7.2940  -7.2937  -7.2932
    -7.2931  -7.2925  -7.2919  -7.2913  -7.2906  -7.2901  -7.2891  -7.2889
    -7.2879  -7.2874  -7.2870  -7.2866  -7.2855  -7.2845  -7.2840  -7.2838
    -7.2832  -7.2825  -7.2822  -7.2811  -7.2807  -7.2803  -7.2801  -7.2791
    -7.2790  -7.2771  -7.2768  -7.2758  -7.2756  -7.2743  -7.2732  -7.2719
    -7.2694  -7.2691  -7.2670  -7.2658  -7.2655  -7.2645  -7.2638  -7.2625
    -7.2620  -7.2591  -7.2584  -7.2549  -7.2534  -7.2522  -7.2518  -7.2501
    -3.5118  -3.4608  -3.3839  -3.3683  -3.2994  -3.2571  -3.1949  -3.1840
    -3.1332  -3.1047  -3.0886  -3.0590  -2.9974  -2.9734  -2.9452  -2.9265
    -2.9053  -2.8861  -2.8494  -2.8462  -2.7956  -2.7233  -2.7004  -2.6720
    -2.6417  -2.6119  -2.5771  -2.5096  -2.4836  -2.4558  -2.3738  -2.3708
    -2.3268  -2.2742  -2.2596  -2.2537  -2.2045  -2.1585  -2.1436  -2.1105
    -2.0715  -2.0361  -2.0146  -1.9924  -1.9834  -1.9745  -1.9309  -1.9175
    -1.8899  -1.8764  -1.8627  -1.8530  -1.8403  -1.8223  -1.7928  -1.7693
    -1.7633  -1.7356  -1.7192  -1.6986  -1.6760  -1.6344  -1.5944  -1.5780
    -1.5489  -1.5373  -1.5266  -1.5087  -1.4852  -1.4593  -1.4382  -1.4274
    -1.4189  -1.4092  -1.3751  -1.3671  -1.3542  -1.3484  -1.3179  -1.2864
    -1.2828  -1.2736  -1.2538  -1.2474  -1.2301  -1.2071  -1.1841  -1.1772
    -1.1628  -1.1603  -1.1430  -1.1188  -1.1132  -1.1016  -1.0925  -1.0843
    -1.0824  -1.0394  -1.0228  -1.0115  -1.0074  -0.9919  -0.9736  -0.9543
    -0.9068  -0.8511  -0.8421  -0.8085   0.4028   0.4222   0.4326   0.4520
     0.6876   0.6924   0.7024   0.7096   0.7200   0.7248   0.7325   0.7375
     0.7526   0.7594   0.7650   0.7696   0.7781   0.7817   0.7837   0.7880
     0.7944   0.7969   0.8007   0.8057   0.8247   0.8289   0.8321   0.8352
     0.8404   0.8426   0.8464   0.8535   0.8576   0.8650   0.8796   0.8813
     0.8849   0.8894   0.8965   0.9097   0.9162   0.9236   0.9276   0.9365
     0.9433   0.9478   0.9534   0.9616   0.9652   0.9727   0.9767   0.9867
     0.9984   1.0032   1.0040   1.0079   1.0090   1.0209   1.0339   1.0471
     1.5469   1.5671   1.6030   1.6350   1.6466   1.6568   1.6753   1.6979
     1.7189   1.7287   1.7383   1.7774   1.8574   1.8752   1.8835   1.8881
     1.9131   1.9216   1.9344   1.9428   1.9621   1.9787   1.9807   1.9882
     1.9896   1.9983   2.0157   2.0323   2.8004   2.8112   2.8373   2.8427
     2.8693   2.9028   2.9334   2.9516   3.3657   3.3743   3.3911   3.4047
     3.4212   3.4260   3.4379   3.4451   3.4589   3.4600   3.4670   3.4823
     3.4916   3.4980   3.5036   3.5214   3.6099   3.6263   3.6279   3.6411
     3.6436   3.6504   3.6530   3.6619   3.6675   3.6730   3.6905   3.6923
     3.6942   3.7025   3.7120   3.7216   3.7672   3.7853   3.7931   3.8102
     3.8547   3.8645   3.8678   3.8780   3.8894   3.9026   3.9054   3.9165
     3.9247   3.9292   3.9376   3.9409   3.9491   3.9531   3.9590   3.9633
     3.9724   3.9865   3.9925   4.0026   4.2451   4.2615   4.2780   4.2890
     4.3100   4.3187   4.3498   4.3580   4.3876   4.4007   4.4080   4.4191
     4.4266   4.4303   4.4540   4.4565   4.4689   4.4757   4.4893   4.4922
     4.4955   4.5075   4.5089   4.5333   4.5440   4.5463   4.5618   4.5657
     4.5748   4.5861   4.5998   4.6041   4.6272   4.6666   4.6771   4.6974
     4.7087   4.7121   4.7208   4.7299   4.7526   4.7701   4.7771   4.7819
     4.7914   4.8042   4.8078   4.8129   4.8312   4.8358   4.8452   4.8555
     4.8613   4.8670   4.8775   4.8826   4.8990   4.9066   4.9277   4.9319
     4.9454   4.9480   4.9557   4.9580   4.9656   4.9845   4.9927   5.0184
     5.0213   5.0293   5.0370   5.0571   5.0684   5.0734   5.0861   5.0890
     5.0972   5.1042   5.1121   5.1143   5.1295   5.1374   5.1477   5.1503
     5.1654   5.1729   5.1993   5.2016   5.2338   5.2518   5.2558   5.2790
     5.2965   5.3025   5.3249   5.3334   5.3359   5.3518   5.3557   5.3586
     5.3766   5.3773   5.3853   5.3898   5.4019   5.4070   5.4234   5.4282
     5.4395   5.4531   5.4643   5.4748   5.5739   5.5765   5.5962   5.6120
     5.6329   5.6528   5.6656   5.6729   5.7156   5.7498   5.7741   5.7856
     5.8064   5.8124   5.8248   5.8277   5.8429   5.8483   5.8604   5.8749
     5.8804   5.8951   5.9021   5.9192   5.9223   5.9252   5.9357   5.9399
     5.9473   5.9544   5.9601   5.9690   5.9788   5.9955   6.0022   6.0244
     6.0876   6.0939   6.1110   6.1253   6.1411   6.1479   6.1600   6.1682
     6.1701   6.1859   6.2034   6.2143   6.2200   6.2335   6.2465   6.2555
     6.3888   6.4009   6.4107   6.4412   6.7826   6.8096   6.8366   6.9000
     8.2381   8.3109   8.3594   8.3825   8.4083   8.4153   8.4545   8.4689
     8.4965   8.5074   8.5239   8.5815   8.7385   8.7482   8.7741   8.7897
     8.7960   8.8216   8.8426   8.8841   8.9472   8.9753   8.9934   9.0239
     9.0404   9.0408   9.0614   9.0655   9.0753   9.0888   9.0982   9.1038
     9.1194   9.1218   9.1358   9.1377   9.1398   9.1515   9.1618   9.1728
     9.1790   9.1860   9.1999   9.2058   9.2095   9.2172   9.2222   9.2389
     9.2479   9.2528   9.2586   9.2737   9.2885   9.2930   9.3082   9.3133
     9.3529   9.3727   9.3846   9.3881   9.3979   9.4053   9.4179   9.4213
     9.4332   9.4461   9.4668   9.4827   9.4841   9.4918   9.5050   9.5101
     9.5135   9.5204   9.5221   9.5366   9.5466   9.5545   9.5606   9.5643
     9.5739   9.5762   9.5824   9.5910   9.6065   9.6100   9.6167   9.6217
     9.6339   9.6349   9.6467   9.6531   9.6549   9.6674   9.6682   9.6758
     9.6876   9.6903   9.7017   9.7070   9.7159   9.7250   9.7297   9.7339
     9.7431   9.7562   9.7718   9.7823  10.0970  10.1157  10.1305  10.1468
    10.1562  10.1689  10.2027  10.2151  10.2189  10.2422  10.2522  10.2585
    10.3387  10.3586  10.3760  10.3849  10.4042  10.4079  10.4172  10.4367
    10.4444  10.4587  10.4769  10.4863  10.5120  10.5226  10.5521  10.5704
    10.6554  10.6870  10.7050  10.7150  10.7224  10.7344  10.7411  10.7446
    10.7565  10.7721  10.7873  10.8021  10.8342  10.8412  10.8486  10.8492
    10.9834  10.9926  11.0094  11.0124  11.0139  11.0297  11.0311  11.0411
    11.0550  11.0618  11.0716  11.0763  11.0802  11.0903  11.0998  11.1134
    11.1311  11.1424  11.1528  11.1728  11.1880  11.1967  11.2009  11.2176
    11.2236  11.2312  11.2388  11.2518  11.2532  11.2635  11.2682  11.2757
    11.2821  11.2881  11.2888  11.3030  11.3081  11.3129  11.3227  11.3252
    11.3314  11.3379  11.3457  11.3477  11.3544  11.3650  11.3815  11.3840
    11.3897  11.3983  11.4014  11.4105  11.4168  11.4238  11.4326  11.4381
    11.4456  11.4557  11.4672  11.4708  11.6056  11.6127  11.6215  11.6272
    11.6346  11.6405  11.6410  11.6482  11.6994  11.7144  11.7193  11.7350
    11.7385  11.7503  11.7560  11.7671  11.7705  11.7850  11.7914  11.7957
    11.8031  11.8125  11.8207  11.8313  11.8401  11.8477  11.8531  11.8595
    11.8841  11.9054  11.9117  11.9145  11.9457  11.9691  11.9814  11.9990
    12.0013  12.0216  12.0251  12.0424  12.0519  12.0623  12.0661  12.0771
    12.0890  12.0985  12.1075  12.1106  12.1158  12.1234  12.1296  12.1356
    12.1493  12.1507  12.1571  12.1703  12.1792  12.1867  12.1890  12.2098
    12.2133  12.2180  12.2253  12.2434  12.2786  12.2957  12.3068  12.3369
    12.3473  12.3523  12.3694  12.3742  12.3901  12.4134  12.4310  12.4389
    12.4628  12.4741  12.4930  12.5078  12.5127  12.5151  12.5200  12.5321
    12.5462  12.5508  12.5635  12.5758  12.5787  12.5807  12.5948  12.5998
    12.6032  12.6084  12.6173  12.6227  12.6300  12.6325  12.6408  12.6449
    12.6512  12.6652  12.6671  12.6747  12.6884  12.6944  12.6989  12.7031
    12.7050  12.7231  12.7266  12.7338  12.7453  12.7477  12.7537  12.7596
    12.7646  12.7763  12.7801  12.7911  12.7948  12.8104  12.8177  12.8217
    12.8303  12.8389  12.8441  12.8485  12.8655  12.8685  12.8721  12.8769
    12.8902  12.9107  12.9181  12.9292  12.9513  12.9591  12.9704  12.9782
    13.2955  13.3243  13.3293  13.3489  13.3607  13.3717  13.3928  13.3980
    13.4444  13.4557  13.4596  13.4704  13.4836  13.4991  13.5130  13.5230
    13.5620  13.5745  13.6019  13.6160  13.6246  13.6351  13.6403  13.6552
    13.6750  13.6824  13.6895  13.7016  13.7108  13.7250  13.7409  13.7532
    13.8851  13.8986  13.9094  13.9183  13.9437  13.9552  13.9650  13.9792
    13.9928  13.9993  14.0023  14.0153  14.0244  14.0270  14.0283  14.0412
    14.0474  14.0572  14.0623  14.0722  14.0747  14.0784  14.0861  14.1001
    14.1125  14.1183  14.1229  14.1288  14.1330  14.1406  14.1581  14.1635
    14.2895  14.2979  14.3144  14.3289  14.3344  14.3638  14.3720  14.3767
    14.3876  14.3905  14.4121  14.4229  14.4320  14.4468  14.4606  14.4725
    14.4863  14.4970  14.5139  14.5477  14.5662  14.5804  14.5867  14.6201
    14.6940  14.6981  14.7050  14.7117  14.7523  14.7574  14.7850  14.7993
    14.8199  14.8349  14.8503  14.8546  14.8621  14.8697  14.8815  14.8885
    14.8939  14.8966  14.9024  14.9144  14.9232  14.9295  14.9447  14.9497
    14.9557  14.9683  14.9762  14.9780  14.9872  15.0000  15.0047  15.0154
    15.0243  15.0315  15.0378  15.0457  15.0510  15.0562  15.0719  15.0809
    15.0872  15.0914  15.0978  15.1093  15.1161  15.1187  15.1214  15.1341
    15.1438  15.1573  15.1655  15.1919  15.2049  15.2511  15.2536  15.2607
    15.2621  15.2806  15.2873  15.2997  15.3036  15.3088  15.3258  15.3307
    15.3414  15.3444  15.3459  15.3513  15.3559  15.3690  15.3765  15.3782
    15.3889  15.3921  15.4084  15.4139  15.4150  15.4233  15.4281  15.4310
    15.4339  15.4379  15.4510  15.4520  15.4558  15.4711  15.4900  15.5142
    15.5477  15.5521  15.5670  15.5688  15.5885  15.5933  15.6146  15.6210
    15.6304  15.6404  15.6531  15.6614  15.6657  15.6811  15.6872  15.6986
    15.7040  15.7119  15.7222  15.7298  15.7355  15.7426  15.7482  15.7514
    15.7562  15.7591  15.7641  15.7815  15.7900  15.8009  15.8085  15.8125
    15.8165  15.8199  15.8333  15.8404  15.8538  15.8726  15.8963  15.9143
    15.9372  15.9428  15.9482  15.9602  16.0279  16.0564  16.0767  16.0811
    16.0907  16.1131  16.1383  16.1486  16.1590  16.1687  16.1828  16.1985
    16.2006  16.2149  16.2188  16.2243  16.2306  16.2352  16.2418  16.2452
    16.2485  16.2623  16.2725  16.2747  16.2779  16.2831  16.2853  16.2937
    16.2987  16.3120  16.3151  16.3266  16.3315  16.3363  16.3377  16.3485
    16.5649  16.5786  16.5875  16.5918  16.5947  16.6147  16.6186  16.6382
    16.6487  16.6580  16.6666  16.6959  16.7091  16.7249  16.7544  16.7595
    16.7847  16.7968  16.8191  16.8457  16.8653  16.8745  16.8814  16.8917
    16.8970  16.8989  16.9073  16.9153  16.9230  16.9333  16.9417  16.9482
    16.9627  16.9651  16.9705  16.9806  16.9896  16.9903  17.0026  17.0196

     highest occupied, lowest unoccupied level (ev):     6.9545    7.1203

!    total energy              =  -34815.20208061 Ry
     estimated scf accuracy    <       0.00000445 Ry

     The total energy is the sum of the following terms:
     one-electron contribution =  -16844.47536829 Ry
     hartree contribution      =   10153.58090723 Ry
     xc contribution           =   -9298.85007127 Ry
     ewald contribution        =  -18827.69195153 Ry
     Hubbard energy            =       2.23440326 Ry

     convergence has been achieved in  12 iterations

     Writing all to output data dir ./tmp_In1.0Ga0.0As0.25Sb0.75_cube_3x3x3.2/In1.0Ga0.0As0.25Sb0.75_cube_3x3x3.2.save/ :
     XML data file, charge density, pseudopotentials, collected wavefunctions

     init_run     :    354.01s CPU    357.48s WALL (       1 calls)
     electrons    :  14024.88s CPU  14061.94s WALL (       1 calls)

     Called by init_run:
     wfcinit      :    344.30s CPU    347.41s WALL (       1 calls)
     potinit      :      0.30s CPU      0.41s WALL (       1 calls)
     hinit0       :      0.95s CPU      1.07s WALL (       1 calls)

     Called by electrons:
     c_bands      :  13661.16s CPU  13696.26s WALL (      13 calls)
     sum_band     :    359.39s CPU    360.05s WALL (      13 calls)
     v_of_rho     :      2.81s CPU      2.97s WALL (      13 calls)
     mix_rho      :      0.88s CPU      0.92s WALL (      13 calls)

     Called by c_bands:
     init_us_2    :     46.90s CPU     47.31s WALL (      56 calls)
     cegterg      :  13126.25s CPU  13158.55s WALL (      26 calls)

     Called by *egterg:
     cdiaghg      :   1612.40s CPU   1613.35s WALL (     262 calls)
     h_psi        :   7384.17s CPU   7403.07s WALL (     266 calls)
     g_psi        :      7.74s CPU      7.74s WALL (     238 calls)

     Called by h_psi:
     h_psi:calbec :   1286.46s CPU   1286.53s WALL (     266 calls)
     vloc_psi     :    963.18s CPU    965.84s WALL (     266 calls)
     add_vuspsi   :   1239.75s CPU   1246.30s WALL (     266 calls)
     vhpsi        :   3879.96s CPU   3880.11s WALL (     266 calls)

     General routines
     calbec       :   1627.49s CPU   1627.57s WALL (     560 calls)
     fft          :      2.37s CPU      2.59s WALL (     131 calls)
     ffts         :      0.26s CPU      0.26s WALL (      13 calls)
     fftw         :    987.75s CPU    990.49s WALL (  330200 calls)

     Parallel routines

     Hubbard U routines
     new_ns       :    100.00s CPU    100.01s WALL (      13 calls)
     vhpsi        :   3879.96s CPU   3880.11s WALL (     266 calls)

     PWSCF        :      4h 0m CPU      4h 5m WALL


   This run was terminated on:  18:51:53  28Jan2026            

=------------------------------------------------------------------------------=
   JOB DONE.
=------------------------------------------------------------------------------=
