
     Program PWSCF v.7.3.1 starts on 16Jun2025 at 17:23:48 

     This program is part of the open-source Quantum ESPRESSO suite
     for quantum simulation of materials; please cite
         "P. Giannozzi et al., J. Phys.:Condens. Matter 21 395502 (2009);
         "P. Giannozzi et al., J. Phys.:Condens. Matter 29 465901 (2017);
         "P. Giannozzi et al., J. Chem. Phys. 152 154105 (2020);
          URL http://www.quantum-espresso.org", 
     in publications or presentations arising from this work. More details at
     http://www.quantum-espresso.org/quote

     Parallel version (MPI), running on   640 processors

     MPI processes distributed on     5 nodes
     493490 MiB available memory on the printing compute node when the environment starts

     Reading input from In0.0Ga1.0As0.25Sb0.75_cube_3x3x3.8.scf.in
Warning: card &CELL ignored
Warning: card   CELL_DOFREE = 'ALL', ignored
Warning: card / ignored

     Current dimensions of program PWSCF are:
     Max number of different atomic species (ntypx) = 10
     Max number of k-points (npk) =  40000
     Max angular momentum in pseudopotentials (lmaxx) =  4

     K-points division:     npool     =       8
     R & G space division:  proc/nbgrp/npool/nimage =      80
     Subspace diagonalization in iterative solution of the eigenvalue problem:
     one sub-group per band group will be used
     custom distributed-memory algorithm (size of sub-group:  8*  8 procs)


     Parallelization info
     --------------------
     sticks:   dense  smooth     PW     G-vecs:    dense   smooth      PW
     Min         552     552    142                87484    87484   11414
     Max         553     553    143                87491    87491   11419
     Sum       44229   44229  11385              6999137  6999137  913281

     Using Slab Decomposition



     bravais-lattice index     =            1
     lattice parameter (alat)  =      34.0316  a.u.
     unit-cell volume          =   39413.5212 (a.u.)^3
     number of atoms/cell      =          216
     number of atomic types    =            4
     number of electrons       =      3024.00
     number of Kohn-Sham states=         2160
     kinetic-energy cutoff     =     120.0000  Ry
     charge density cutoff     =     480.0000  Ry
     scf convergence threshold =      1.0E-05
     mixing beta               =       0.6500
     number of iterations used =            8  plain     mixing
     Exchange-correlation= PBE
                           (   1   4   3   4   0   0   0)
     Hubbard projectors: atomic
     Hubbard parameters of DFT+U (Dudarev formulation) in eV:
     U(As-4p) =  5.8400
     U(Ga-4p) = -2.3350
     U(In-5p) = -1.0575
     U(Sb-5p) =  4.8900

     Internal variables: lda_plus_u =T, lda_plus_u_kind = 0

     celldm(1)=  34.031551  celldm(2)=   0.000000  celldm(3)=   0.000000
     celldm(4)=   0.000000  celldm(5)=   0.000000  celldm(6)=   0.000000

     crystal axes: (cart. coord. in units of alat)
               a(1) = (   1.000000   0.000000   0.000000 )  
               a(2) = (   0.000000   1.000000   0.000000 )  
               a(3) = (   0.000000   0.000000   1.000000 )  

     reciprocal axes: (cart. coord. in units 2 pi/alat)
               b(1) = (  1.000000  0.000000  0.000000 )  
               b(2) = (  0.000000  1.000000  0.000000 )  
               b(3) = (  0.000000  0.000000  1.000000 )  


     PseudoPot. # 1 for As read from file:
     /work/i254/i254/gentles/data/pseudos/As.pbe.NC-SR.standard.v0.5.UPF
     MD5 check sum: bfe1a874457ce592347346129958e7cf
     Pseudo is Norm-conserving + core correction, Zval = 15.0
     Generated using ONCVPSP code by D. R. Hamann
     Using radial grid of 1358 points,  6 beta functions with: 
                l(1) =   0
                l(2) =   0
                l(3) =   1
                l(4) =   1
                l(5) =   2
                l(6) =   2

     PseudoPot. # 2 for Ga read from file:
     /work/i254/i254/gentles/data/pseudos/Ga.pbe.NC-SR.standard.v0.5.UPF
     MD5 check sum: 2bb81bf6f0a8d9832cf3329850435ecf
     Pseudo is Norm-conserving + core correction, Zval = 13.0
     Generated using ONCVPSP code by D. R. Hamann
     Using radial grid of 1902 points,  6 beta functions with: 
                l(1) =   0
                l(2) =   0
                l(3) =   1
                l(4) =   1
                l(5) =   2
                l(6) =   2

     PseudoPot. # 3 for In read from file:
     /work/i254/i254/gentles/data/pseudos/In.pbe.NC-SR.standard.v0.5.UPF
     MD5 check sum: 835f4bf908c982ff75c88e16816a8d7f
     Pseudo is Norm-conserving + core correction, Zval = 13.0
     Generated using ONCVPSP code by D. R. Hamann
     Using radial grid of 1964 points,  6 beta functions with: 
                l(1) =   0
                l(2) =   0
                l(3) =   1
                l(4) =   1
                l(5) =   2
                l(6) =   2

     PseudoPot. # 4 for Sb read from file:
     /work/i254/i254/gentles/data/pseudos/Sb.pbe.NC-SR.standard.v0.5.UPF
     MD5 check sum: 127f69b6101c45666faeae1b5d611565
     Pseudo is Norm-conserving + core correction, Zval = 15.0
     Generated using ONCVPSP code by D. R. Hamann
     Using radial grid of 1434 points,  6 beta functions with: 
                l(1) =   0
                l(2) =   0
                l(3) =   1
                l(4) =   1
                l(5) =   2
                l(6) =   2

     atomic species   valence    mass     pseudopotential
     As               15.00    74.92160     As( 1.00)
     Ga               13.00    69.72300     Ga( 1.00)
     In               13.00   114.81800     In( 1.00)
     Sb               15.00   121.76000     Sb( 1.00)

     No symmetry found



   Cartesian axes

     site n.     atom                  positions (alat units)
         1        Ga     tau(   1) = (   0.0019210  -0.0024390  -0.0025310  )
         2        Ga     tau(   2) = (   0.0018080   0.1652990   0.1679730  )
         3        Ga     tau(   3) = (   0.1699160   0.0007320   0.1647590  )
         4        Ga     tau(   4) = (   0.1717680   0.1667310  -0.0019080  )
         5        Sb     tau(   5) = (   0.0852920   0.0833840   0.0810120  )
         6        Sb     tau(   6) = (   0.0847700   0.2498810   0.2533340  )
         7        Sb     tau(   7) = (   0.2542440   0.0828740   0.2512070  )
         8        Sb     tau(   8) = (   0.2543640   0.2514460   0.0840770  )
         9        Ga     tau(   9) = (   0.0009390  -0.0016150   0.3330020  )
        10        Ga     tau(  10) = (  -0.0030950   0.1717870   0.4974860  )
        11        Ga     tau(  11) = (   0.1678670  -0.0014550   0.5025260  )
        12        Ga     tau(  12) = (   0.1731680   0.1686230   0.3383240  )
        13        Sb     tau(  13) = (   0.0843010   0.0845480   0.4178610  )
        14        Sb     tau(  14) = (   0.0867840   0.2497160   0.5847870  )
        15        Sb     tau(  15) = (   0.2524050   0.0819830   0.5874010  )
        16        As     tau(  16) = (   0.2532230   0.2480650   0.4154520  )
        17        Ga     tau(  17) = (   0.0060840   0.0055290   0.6698590  )
        18        Ga     tau(  18) = (   0.0059150   0.1598260   0.8297710  )
        19        Ga     tau(  19) = (   0.1702890  -0.0006360   0.8237460  )
        20        Ga     tau(  20) = (   0.1685100   0.1649380   0.6751220  )
        21        As     tau(  21) = (   0.0873300   0.0818900   0.7504490  )
        22        Sb     tau(  22) = (   0.0868600   0.2486230   0.9122340  )
        23        Sb     tau(  23) = (   0.2538960   0.0822890   0.9115250  )
        24        As     tau(  24) = (   0.2505050   0.2474770   0.7505100  )
        25        Ga     tau(  25) = (   0.0003380   0.3305840  -0.0028720  )
        26        Ga     tau(  26) = (   0.0012760   0.4985110   0.1690850  )
        27        Ga     tau(  27) = (   0.1673970   0.3350440   0.1674650  )
        28        Ga     tau(  28) = (   0.1679180   0.4998540  -0.0027460  )
        29        Sb     tau(  29) = (   0.0831200   0.4160860   0.0816300  )
        30        Sb     tau(  30) = (   0.0861690   0.5854320   0.2509070  )
        31        Sb     tau(  31) = (   0.2551070   0.4159510   0.2513660  )
        32        Sb     tau(  32) = (   0.2511710   0.5849970   0.0811030  )
        33        Ga     tau(  33) = (  -0.0037730   0.3311840   0.3381250  )
        34        Ga     tau(  34) = (   0.0009360   0.5005350   0.4997640  )
        35        Ga     tau(  35) = (   0.1734340   0.3278600   0.4953230  )
        36        Ga     tau(  36) = (   0.1750970   0.5057750   0.3363570  )
        37        Sb     tau(  37) = (   0.0873850   0.4166820   0.4161330  )
        38        Sb     tau(  38) = (   0.0840390   0.5859760   0.5844010  )
        39        Sb     tau(  39) = (   0.2481440   0.4162430   0.5839690  )
        40        As     tau(  40) = (   0.2527800   0.5856730   0.4176540  )
        41        Ga     tau(  41) = (   0.0061940   0.3386880   0.6703970  )
        42        Ga     tau(  42) = (   0.0058130   0.4984240   0.8273430  )
        43        Ga     tau(  43) = (   0.1695850   0.3318200   0.8250390  )
        44        Ga     tau(  44) = (   0.1611800   0.4967160   0.6708920  )
        45        As     tau(  45) = (   0.0861760   0.4156990   0.7508810  )
        46        Sb     tau(  46) = (   0.0851280   0.5870160   0.9142830  )
        47        Sb     tau(  47) = (   0.2521130   0.4136880   0.9146600  )
        48        Sb     tau(  48) = (   0.2473630   0.5854850   0.7505960  )
        49        Ga     tau(  49) = (   0.0034680   0.6702690   0.0037790  )
        50        Ga     tau(  50) = (   0.0048350   0.8285590   0.1604140  )
        51        Ga     tau(  51) = (   0.1650350   0.6718180   0.1625880  )
        52        Ga     tau(  52) = (   0.1687910   0.8259910  -0.0000090  )
        53        As     tau(  53) = (   0.0858330   0.7499970   0.0804900  )
        54        Sb     tau(  54) = (   0.0853440   0.9149190   0.2479580  )
        55        Sb     tau(  55) = (   0.2524150   0.7512160   0.2518650  )
        56        Sb     tau(  56) = (   0.2537720   0.9139650   0.0822950  )
        57        Ga     tau(  57) = (  -0.0006150   0.6680060   0.3349580  )
        58        Ga     tau(  58) = (  -0.0048880   0.8277970   0.5088560  )
        59        Ga     tau(  59) = (   0.1732970   0.6631140   0.4976510  )
        60        Ga     tau(  60) = (   0.1675440   0.8335460   0.3368090  )
        61        Sb     tau(  61) = (   0.0832640   0.7491300   0.4212840  )
        62        Sb     tau(  62) = (   0.0843320   0.9144600   0.5879120  )
        63        Sb     tau(  63) = (   0.2524970   0.7523800   0.5830550  )
        64        Sb     tau(  64) = (   0.2554220   0.9161270   0.4187140  )
        65        Ga     tau(  65) = (   0.0033730   0.6767830   0.6669430  )
        66        Ga     tau(  66) = (   0.0058240   0.8300950   0.8279420  )
        67        Ga     tau(  67) = (   0.1673820   0.6772190   0.8323070  )
        68        Ga     tau(  68) = (   0.1705270   0.8343800   0.6747320  )
        69        As     tau(  69) = (   0.0870890   0.7530190   0.7491360  )
        70        Sb     tau(  70) = (   0.0888830   0.9144830   0.9133600  )
        71        As     tau(  71) = (   0.2486640   0.7541210   0.9147480  )
        72        As     tau(  72) = (   0.2528030   0.9168520   0.7500530  )
        73        Ga     tau(  73) = (   0.3383910  -0.0042180  -0.0054500  )
        74        Ga     tau(  74) = (   0.3383620   0.1695980   0.1701970  )
        75        Ga     tau(  75) = (   0.4999660  -0.0007430   0.1749460  )
        76        Ga     tau(  76) = (   0.4939990   0.1685220  -0.0058240  )
        77        Sb     tau(  77) = (   0.4173700   0.0816560   0.0842950  )
        78        As     tau(  78) = (   0.4173590   0.2486860   0.2495490  )
        79        As     tau(  79) = (   0.5805760   0.0811910   0.2502780  )
        80        Sb     tau(  80) = (   0.5790620   0.2463370   0.0853860  )
        81        Ga     tau(  81) = (   0.3400160  -0.0061410   0.3291590  )
        82        Ga     tau(  82) = (   0.3304660   0.1675810   0.4952330  )
        83        Ga     tau(  83) = (   0.4976340  -0.0085370   0.4994900  )
        84        Ga     tau(  84) = (   0.5002220   0.1661530   0.3237130  )
        85        Sb     tau(  85) = (   0.4185840   0.0819150   0.4135940  )
        86        Sb     tau(  86) = (   0.4141090   0.2466410   0.5851340  )
        87        Sb     tau(  87) = (   0.5799090   0.0768990   0.5845120  )
        88        Sb     tau(  88) = (   0.5798430   0.2479130   0.4152920  )
        89        Ga     tau(  89) = (   0.3378710  -0.0052990   0.6699380  )
        90        Ga     tau(  90) = (   0.3366850   0.1691580   0.8291280  )
        91        Ga     tau(  91) = (   0.4946940  -0.0051020   0.8294950  )
        92        Ga     tau(  92) = (   0.4923250   0.1560860   0.6704240  )
        93        As     tau(  93) = (   0.4141840   0.0783790   0.7517880  )
        94        As     tau(  94) = (   0.4144720   0.2482810   0.9146790  )
        95        Sb     tau(  95) = (   0.5792160   0.0798950   0.9156560  )
        96        Sb     tau(  96) = (   0.5783900   0.2462950   0.7492400  )
        97        Ga     tau(  97) = (   0.3409540   0.3320130  -0.0018080  )
        98        Ga     tau(  98) = (   0.3386580   0.4969780   0.1620240  )
        99        Ga     tau(  99) = (   0.4913790   0.3322940   0.1672450  )
       100        Ga     tau( 100) = (   0.4945710   0.4964440   0.0084650  )
       101        As     tau( 101) = (   0.4158490   0.4130650   0.0834280  )
       102        Sb     tau( 102) = (   0.4168910   0.5857790   0.2516720  )
       103        Sb     tau( 103) = (   0.5814890   0.4165290   0.2481190  )
       104        Sb     tau( 104) = (   0.5815620   0.5851410   0.0869570  )
       105        Ga     tau( 105) = (   0.3353840   0.3225930   0.3329130  )
       106        Ga     tau( 106) = (   0.3281280   0.5036250   0.4971510  )
       107        Ga     tau( 107) = (   0.4984390   0.3331850   0.5016280  )
       108        Ga     tau( 108) = (   0.4998610   0.4992740   0.3349800  )
       109        Sb     tau( 109) = (   0.4128150   0.4146140   0.4166480  )
       110        Sb     tau( 110) = (   0.4161190   0.5854860   0.5795820  )
       111        Sb     tau( 111) = (   0.5852910   0.4191890   0.5817770  )
       112        Sb     tau( 112) = (   0.5844070   0.5866790   0.4162740  )
       113        Ga     tau( 113) = (   0.3275640   0.3280310   0.6699530  )
       114        Ga     tau( 114) = (   0.3331140   0.5022730   0.8335230  )
       115        Ga     tau( 115) = (   0.4945050   0.3280330   0.8375330  )
       116        Ga     tau( 116) = (   0.4986600   0.4999070   0.6647870  )
       117        Sb     tau( 117) = (   0.4144960   0.4146660   0.7503600  )
       118        Sb     tau( 118) = (   0.4164030   0.5847570   0.9194090  )
       119        Sb     tau( 119) = (   0.5784360   0.4155860   0.9196220  )
       120        Sb     tau( 120) = (   0.5840570   0.5859170   0.7469940  )
       121        Ga     tau( 121) = (   0.3286640   0.6742780  -0.0056530  )
       122        Ga     tau( 122) = (   0.3411040   0.8387480   0.1728330  )
       123        Ga     tau( 123) = (   0.5024990   0.6741950   0.1717410  )
       124        Ga     tau( 124) = (   0.4949800   0.8414360  -0.0076550  )
       125        Sb     tau( 125) = (   0.4173390   0.7545950   0.0814340  )
       126        As     tau( 126) = (   0.4221910   0.9151230   0.2528470  )
       127        As     tau( 127) = (   0.5808240   0.7517330   0.2536610  )
       128        Sb     tau( 128) = (   0.5803830   0.9172680   0.0850820  )
       129        Ga     tau( 129) = (   0.3339790   0.6683630   0.3418720  )
       130        Ga     tau( 130) = (   0.3437250   0.8342230   0.5025420  )
       131        Ga     tau( 131) = (   0.4968170   0.6740910   0.4951240  )
       132        Ga     tau( 132) = (   0.4993240   0.8324740   0.3341400  )
       133        As     tau( 133) = (   0.4175650   0.7535700   0.4161550  )
       134        As     tau( 134) = (   0.4185690   0.9167550   0.5850990  )
       135        Sb     tau( 135) = (   0.5827340   0.7541470   0.5827810  )
       136        As     tau( 136) = (   0.5765290   0.9160060   0.4139950  )
       137        Ga     tau( 137) = (   0.3337360   0.6676380   0.6668400  )
       138        Ga     tau( 138) = (   0.3273440   0.8391410   0.8376230  )
       139        Ga     tau( 139) = (   0.4992600   0.6685420   0.8326650  )
       140        Ga     tau( 140) = (   0.4993080   0.8412730   0.6671650  )
       141        Sb     tau( 141) = (   0.4136320   0.7556280   0.7520270  )
       142        As     tau( 142) = (   0.4142160   0.9175030   0.9116850  )
       143        Sb     tau( 143) = (   0.5828900   0.7545810   0.9132810  )
       144        As     tau( 144) = (   0.5789250   0.9163790   0.7499770  )
       145        Ga     tau( 145) = (   0.6675730   0.0027670   0.0046960  )
       146        Ga     tau( 146) = (   0.6636270   0.1557060   0.1678200  )
       147        Ga     tau( 147) = (   0.8259180   0.0030210   0.1642300  )
       148        Ga     tau( 148) = (   0.8278180   0.1611850   0.0050480  )
       149        As     tau( 149) = (   0.7467660   0.0819790   0.0843000  )
       150        Sb     tau( 150) = (   0.7478270   0.2464580   0.2503130  )
       151        Sb     tau( 151) = (   0.9142820   0.0829390   0.2509990  )
       152        Sb     tau( 152) = (   0.9160700   0.2475790   0.0833880  )
       153        Ga     tau( 153) = (   0.6540650   0.0002940   0.3346220  )
       154        Ga     tau( 154) = (   0.6631020   0.1640600   0.5013230  )
       155        Ga     tau( 155) = (   0.8314140  -0.0015550   0.5026720  )
       156        Ga     tau( 156) = (   0.8362530   0.1701650   0.3387540  )
       157        Sb     tau( 157) = (   0.7470740   0.0815640   0.4166190  )
       158        Sb     tau( 158) = (   0.7493510   0.2501790   0.5809320  )
       159        Sb     tau( 159) = (   0.9180440   0.0842650   0.5829460  )
       160        As     tau( 160) = (   0.9173300   0.2502780   0.4171810  )
       161        Ga     tau( 161) = (   0.6609400  -0.0063940   0.6720910  )
       162        Ga     tau( 162) = (   0.6646420   0.1646280   0.8332850  )
       163        Ga     tau( 163) = (   0.8343080  -0.0032380   0.8330510  )
       164        Ga     tau( 164) = (   0.8327040   0.1666460   0.6658610  )
       165        Sb     tau( 165) = (   0.7491540   0.0807310   0.7498340  )
       166        Sb     tau( 166) = (   0.7482590   0.2486920   0.9189090  )
       167        Sb     tau( 167) = (   0.9164520   0.0822610   0.9167050  )
       168        Sb     tau( 168) = (   0.9211390   0.2483620   0.7492320  )
       169        Ga     tau( 169) = (   0.6644260   0.3334180   0.0037880  )
       170        Ga     tau( 170) = (   0.6699210   0.5052170   0.1708650  )
       171        Ga     tau( 171) = (   0.8321540   0.3325870   0.1668290  )
       172        Ga     tau( 172) = (   0.8357930   0.5029170  -0.0023280  )
       173        Sb     tau( 173) = (   0.7508120   0.4200110   0.0836460  )
       174        As     tau( 174) = (   0.7464280   0.5859870   0.2505530  )
       175        Sb     tau( 175) = (   0.9135760   0.4176260   0.2530970  )
       176        Sb     tau( 176) = (   0.9176090   0.5847320   0.0863110  )
       177        Ga     tau( 177) = (   0.6645970   0.3333780   0.3340940  )
       178        Ga     tau( 178) = (   0.6722670   0.5088050   0.5047690  )
       179        Ga     tau( 179) = (   0.8381500   0.3301310   0.4953400  )
       180        Ga     tau( 180) = (   0.8260870   0.5073530   0.3301800  )
       181        Sb     tau( 181) = (   0.7500980   0.4191820   0.4174120  )
       182        As     tau( 182) = (   0.7513170   0.5885290   0.5851440  )
       183        Sb     tau( 183) = (   0.9168870   0.4168430   0.5837080  )
       184        Sb     tau( 184) = (   0.9134120   0.5852620   0.4184060  )
       185        Ga     tau( 185) = (   0.6647430   0.3325360   0.6666830  )
       186        Ga     tau( 186) = (   0.6632790   0.4991040   0.8337370  )
       187        Ga     tau( 187) = (   0.8348430   0.3313110   0.8333210  )
       188        Ga     tau( 188) = (   0.8296020   0.5058900   0.6616810  )
       189        Sb     tau( 189) = (   0.7499580   0.4171410   0.7494070  )
       190        Sb     tau( 190) = (   0.7484070   0.5855670   0.9144130  )
       191        Sb     tau( 191) = (   0.9194200   0.4178780   0.9137130  )
       192        Sb     tau( 192) = (   0.9182740   0.5869320   0.7464390  )
       193        Ga     tau( 193) = (   0.6635980   0.6682580  -0.0008340  )
       194        Ga     tau( 194) = (   0.6587090   0.8285410   0.1712930  )
       195        Ga     tau( 195) = (   0.8277390   0.6623040   0.1714370  )
       196        Ga     tau( 196) = (   0.8313830   0.8329340  -0.0006750  )
       197        Sb     tau( 197) = (   0.7471990   0.7487860   0.0862030  )
       198        Sb     tau( 198) = (   0.7427480   0.9179190   0.2509900  )
       199        Sb     tau( 199) = (   0.9165880   0.7498830   0.2477430  )
       200        Sb     tau( 200) = (   0.9157650   0.9169710   0.0835100  )
       201        Ga     tau( 201) = (   0.6653730   0.6684290   0.3261040  )
       202        Ga     tau( 202) = (   0.6597280   0.8386160   0.4915020  )
       203        Ga     tau( 203) = (   0.8335910   0.6685350   0.5090830  )
       204        Ga     tau( 204) = (   0.8332350   0.8353250   0.3326300  )
       205        Sb     tau( 205) = (   0.7491250   0.7498180   0.4162530  )
       206        Sb     tau( 206) = (   0.7462040   0.9125550   0.5840140  )
       207        As     tau( 207) = (   0.9155880   0.7485530   0.5875520  )
       208        Sb     tau( 208) = (   0.9178230   0.9149760   0.4200350  )
       209        Ga     tau( 209) = (   0.6736750   0.6698950   0.6651350  )
       210        Ga     tau( 210) = (   0.6645540   0.8339870   0.8220440  )
       211        Ga     tau( 211) = (   0.8289190   0.6718300   0.8280240  )
       212        Ga     tau( 212) = (   0.8329340   0.8257830   0.6651790  )
       213        As     tau( 213) = (   0.7498790   0.7516670   0.7466190  )
       214        Sb     tau( 214) = (   0.7456840   0.9157600   0.9147750  )
       215        Sb     tau( 215) = (   0.9177930   0.7504030   0.9148690  )
       216        Sb     tau( 216) = (   0.9186760   0.9148070   0.7465730  )

     number of k points=     8
                       cart. coord. in units 2pi/alat
        k(    1) = (   0.0000000   0.0000000   0.0000000), wk =   0.2500000
        k(    2) = (   0.0000000   0.0000000  -0.5000000), wk =   0.2500000
        k(    3) = (   0.0000000  -0.5000000  -0.5000000), wk =   0.2500000
        k(    4) = (  -0.5000000  -0.5000000  -0.5000000), wk =   0.2500000
        k(    5) = (  -0.5000000   0.0000000   0.0000000), wk =   0.2500000
        k(    6) = (   0.0000000  -0.5000000   0.0000000), wk =   0.2500000
        k(    7) = (  -0.5000000   0.0000000   0.5000000), wk =   0.2500000
        k(    8) = (  -0.5000000   0.5000000   0.0000000), wk =   0.2500000

     Dense  grid:  6999137 G-vectors     FFT dimensions: ( 240, 240, 240)

     Estimated max dynamical RAM per process >       2.70 GB

     Estimated total dynamical RAM >    1715.75 GB

     Initial potential from superposition of free atoms

     starting charge    3023.6593, renormalised to    3024.0000

     STARTING HUBBARD OCCUPATIONS:

     =================== HUBBARD OCCUPATIONS ===================
     ------------------------ ATOM    1 ------------------------
     Tr[ns(  1)] =   1.00000
     eigenvalues:
       0.167  0.167  0.167
     eigenvectors (columns):
       1.000  0.000  0.000
       0.000  1.000  0.000
       0.000  0.000  1.000
     occupation matrix ns (before diag.):
       0.167  0.000  0.000
       0.000  0.167  0.000
       0.000  0.000  0.167
     ------------------------ ATOM    2 ------------------------
     Tr[ns(  2)] =   1.00000
     eigenvalues:
       0.167  0.167  0.167
     eigenvectors (columns):
       1.000  0.000  0.000
       0.000  1.000  0.000
       0.000  0.000  1.000
     occupation matrix ns (before diag.):
       0.167  0.000  0.000
       0.000  0.167  0.000
       0.000  0.000  0.167
     ------------------------ ATOM    3 ------------------------
     Tr[ns(  3)] =   1.00000
     eigenvalues:
       0.167  0.167  0.167
     eigenvectors (columns):
       1.000  0.000  0.000
       0.000  1.000  0.000
       0.000  0.000  1.000
     occupation matrix ns (before diag.):
       0.167  0.000  0.000
       0.000  0.167  0.000
       0.000  0.000  0.167
     ------------------------ ATOM    4 ------------------------
     Tr[ns(  4)] =   1.00000
     eigenvalues:
       0.167  0.167  0.167
     eigenvectors (columns):
       1.000  0.000  0.000
       0.000  1.000  0.000
       0.000  0.000  1.000
     occupation matrix ns (before diag.):
       0.167  0.000  0.000
       0.000  0.167  0.000
       0.000  0.000  0.167
     ------------------------ ATOM    5 ------------------------
     Tr[ns(  5)] =   3.00000
     eigenvalues:
       0.500  0.500  0.500
     eigenvectors (columns):
       1.000  0.000  0.000
       0.000  1.000  0.000
       0.000  0.000  1.000
     occupation matrix ns (before diag.):
       0.500  0.000  0.000
       0.000  0.500  0.000
       0.000  0.000  0.500
     ------------------------ ATOM    6 ------------------------
     Tr[ns(  6)] =   3.00000
     eigenvalues:
       0.500  0.500  0.500
     eigenvectors (columns):
       1.000  0.000  0.000
       0.000  1.000  0.000
       0.000  0.000  1.000
     occupation matrix ns (before diag.):
       0.500  0.000  0.000
       0.000  0.500  0.000
       0.000  0.000  0.500
     ------------------------ ATOM    7 ------------------------
     Tr[ns(  7)] =   3.00000
     eigenvalues:
       0.500  0.500  0.500
     eigenvectors (columns):
       1.000  0.000  0.000
       0.000  1.000  0.000
       0.000  0.000  1.000
     occupation matrix ns (before diag.):
       0.500  0.000  0.000
       0.000  0.500  0.000
       0.000  0.000  0.500
     ------------------------ ATOM    8 ------------------------
     Tr[ns(  8)] =   3.00000
     eigenvalues:
       0.500  0.500  0.500
     eigenvectors (columns):
       1.000  0.000  0.000
       0.000  1.000  0.000
       0.000  0.000  1.000
     occupation matrix ns (before diag.):
       0.500  0.000  0.000
       0.000  0.500  0.000
       0.000  0.000  0.500
     ------------------------ ATOM    9 ------------------------
     Tr[ns(  9)] =   1.00000
     eigenvalues:
       0.167  0.167  0.167
     eigenvectors (columns):
       1.000  0.000  0.000
       0.000  1.000  0.000
       0.000  0.000  1.000
     occupation matrix ns (before diag.):
       0.167  0.000  0.000
       0.000  0.167  0.000
       0.000  0.000  0.167
     ------------------------ ATOM   10 ------------------------
     Tr[ns( 10)] =   1.00000
     eigenvalues:
       0.167  0.167  0.167
     eigenvectors (columns):
       1.000  0.000  0.000
       0.000  1.000  0.000
       0.000  0.000  1.000
     occupation matrix ns (before diag.):
       0.167  0.000  0.000
       0.000  0.167  0.000
       0.000  0.000  0.167
     ------------------------ ATOM   11 ------------------------
     Tr[ns( 11)] =   1.00000
     eigenvalues:
       0.167  0.167  0.167
     eigenvectors (columns):
       1.000  0.000  0.000
       0.000  1.000  0.000
       0.000  0.000  1.000
     occupation matrix ns (before diag.):
       0.167  0.000  0.000
       0.000  0.167  0.000
       0.000  0.000  0.167
     ------------------------ ATOM   12 ------------------------
     Tr[ns( 12)] =   1.00000
     eigenvalues:
       0.167  0.167  0.167
     eigenvectors (columns):
       1.000  0.000  0.000
       0.000  1.000  0.000
       0.000  0.000  1.000
     occupation matrix ns (before diag.):
       0.167  0.000  0.000
       0.000  0.167  0.000
       0.000  0.000  0.167
     ------------------------ ATOM   13 ------------------------
     Tr[ns( 13)] =   3.00000
     eigenvalues:
       0.500  0.500  0.500
     eigenvectors (columns):
       1.000  0.000  0.000
       0.000  1.000  0.000
       0.000  0.000  1.000
     occupation matrix ns (before diag.):
       0.500  0.000  0.000
       0.000  0.500  0.000
       0.000  0.000  0.500
     ------------------------ ATOM   14 ------------------------
     Tr[ns( 14)] =   3.00000
     eigenvalues:
       0.500  0.500  0.500
     eigenvectors (columns):
       1.000  0.000  0.000
       0.000  1.000  0.000
       0.000  0.000  1.000
     occupation matrix ns (before diag.):
       0.500  0.000  0.000
       0.000  0.500  0.000
       0.000  0.000  0.500
     ------------------------ ATOM   15 ------------------------
     Tr[ns( 15)] =   3.00000
     eigenvalues:
       0.500  0.500  0.500
     eigenvectors (columns):
       1.000  0.000  0.000
       0.000  1.000  0.000
       0.000  0.000  1.000
     occupation matrix ns (before diag.):
       0.500  0.000  0.000
       0.000  0.500  0.000
       0.000  0.000  0.500
     ------------------------ ATOM   16 ------------------------
     Tr[ns( 16)] =   3.00000
     eigenvalues:
       0.500  0.500  0.500
     eigenvectors (columns):
       1.000  0.000  0.000
       0.000  1.000  0.000
       0.000  0.000  1.000
     occupation matrix ns (before diag.):
       0.500  0.000  0.000
       0.000  0.500  0.000
       0.000  0.000  0.500
     ------------------------ ATOM   17 ------------------------
     Tr[ns( 17)] =   1.00000
     eigenvalues:
       0.167  0.167  0.167
     eigenvectors (columns):
       1.000  0.000  0.000
       0.000  1.000  0.000
       0.000  0.000  1.000
     occupation matrix ns (before diag.):
       0.167  0.000  0.000
       0.000  0.167  0.000
       0.000  0.000  0.167
     ------------------------ ATOM   18 ------------------------
     Tr[ns( 18)] =   1.00000
     eigenvalues:
       0.167  0.167  0.167
     eigenvectors (columns):
       1.000  0.000  0.000
       0.000  1.000  0.000
       0.000  0.000  1.000
     occupation matrix ns (before diag.):
       0.167  0.000  0.000
       0.000  0.167  0.000
       0.000  0.000  0.167
     ------------------------ ATOM   19 ------------------------
     Tr[ns( 19)] =   1.00000
     eigenvalues:
       0.167  0.167  0.167
     eigenvectors (columns):
       1.000  0.000  0.000
       0.000  1.000  0.000
       0.000  0.000  1.000
     occupation matrix ns (before diag.):
       0.167  0.000  0.000
       0.000  0.167  0.000
       0.000  0.000  0.167
     ------------------------ ATOM   20 ------------------------
     Tr[ns( 20)] =   1.00000
     eigenvalues:
       0.167  0.167  0.167
     eigenvectors (columns):
       1.000  0.000  0.000
       0.000  1.000  0.000
       0.000  0.000  1.000
     occupation matrix ns (before diag.):
       0.167  0.000  0.000
       0.000  0.167  0.000
       0.000  0.000  0.167
     ------------------------ ATOM   21 ------------------------
     Tr[ns( 21)] =   3.00000
     eigenvalues:
       0.500  0.500  0.500
     eigenvectors (columns):
       1.000  0.000  0.000
       0.000  1.000  0.000
       0.000  0.000  1.000
     occupation matrix ns (before diag.):
       0.500  0.000  0.000
       0.000  0.500  0.000
       0.000  0.000  0.500
     ------------------------ ATOM   22 ------------------------
     Tr[ns( 22)] =   3.00000
     eigenvalues:
       0.500  0.500  0.500
     eigenvectors (columns):
       1.000  0.000  0.000
       0.000  1.000  0.000
       0.000  0.000  1.000
     occupation matrix ns (before diag.):
       0.500  0.000  0.000
       0.000  0.500  0.000
       0.000  0.000  0.500
     ------------------------ ATOM   23 ------------------------
     Tr[ns( 23)] =   3.00000
     eigenvalues:
       0.500  0.500  0.500
     eigenvectors (columns):
       1.000  0.000  0.000
       0.000  1.000  0.000
       0.000  0.000  1.000
     occupation matrix ns (before diag.):
       0.500  0.000  0.000
       0.000  0.500  0.000
       0.000  0.000  0.500
     ------------------------ ATOM   24 ------------------------
     Tr[ns( 24)] =   3.00000
     eigenvalues:
       0.500  0.500  0.500
     eigenvectors (columns):
       1.000  0.000  0.000
       0.000  1.000  0.000
       0.000  0.000  1.000
     occupation matrix ns (before diag.):
       0.500  0.000  0.000
       0.000  0.500  0.000
       0.000  0.000  0.500
     ------------------------ ATOM   25 ------------------------
     Tr[ns( 25)] =   1.00000
     eigenvalues:
       0.167  0.167  0.167
     eigenvectors (columns):
       1.000  0.000  0.000
       0.000  1.000  0.000
       0.000  0.000  1.000
     occupation matrix ns (before diag.):
       0.167  0.000  0.000
       0.000  0.167  0.000
       0.000  0.000  0.167
     ------------------------ ATOM   26 ------------------------
     Tr[ns( 26)] =   1.00000
     eigenvalues:
       0.167  0.167  0.167
     eigenvectors (columns):
       1.000  0.000  0.000
       0.000  1.000  0.000
       0.000  0.000  1.000
     occupation matrix ns (before diag.):
       0.167  0.000  0.000
       0.000  0.167  0.000
       0.000  0.000  0.167
     ------------------------ ATOM   27 ------------------------
     Tr[ns( 27)] =   1.00000
     eigenvalues:
       0.167  0.167  0.167
     eigenvectors (columns):
       1.000  0.000  0.000
       0.000  1.000  0.000
       0.000  0.000  1.000
     occupation matrix ns (before diag.):
       0.167  0.000  0.000
       0.000  0.167  0.000
       0.000  0.000  0.167
     ------------------------ ATOM   28 ------------------------
     Tr[ns( 28)] =   1.00000
     eigenvalues:
       0.167  0.167  0.167
     eigenvectors (columns):
       1.000  0.000  0.000
       0.000  1.000  0.000
       0.000  0.000  1.000
     occupation matrix ns (before diag.):
       0.167  0.000  0.000
       0.000  0.167  0.000
       0.000  0.000  0.167
     ------------------------ ATOM   29 ------------------------
     Tr[ns( 29)] =   3.00000
     eigenvalues:
       0.500  0.500  0.500
     eigenvectors (columns):
       1.000  0.000  0.000
       0.000  1.000  0.000
       0.000  0.000  1.000
     occupation matrix ns (before diag.):
       0.500  0.000  0.000
       0.000  0.500  0.000
       0.000  0.000  0.500
     ------------------------ ATOM   30 ------------------------
     Tr[ns( 30)] =   3.00000
     eigenvalues:
       0.500  0.500  0.500
     eigenvectors (columns):
       1.000  0.000  0.000
       0.000  1.000  0.000
       0.000  0.000  1.000
     occupation matrix ns (before diag.):
       0.500  0.000  0.000
       0.000  0.500  0.000
       0.000  0.000  0.500
     ------------------------ ATOM   31 ------------------------
     Tr[ns( 31)] =   3.00000
     eigenvalues:
       0.500  0.500  0.500
     eigenvectors (columns):
       1.000  0.000  0.000
       0.000  1.000  0.000
       0.000  0.000  1.000
     occupation matrix ns (before diag.):
       0.500  0.000  0.000
       0.000  0.500  0.000
       0.000  0.000  0.500
     ------------------------ ATOM   32 ------------------------
     Tr[ns( 32)] =   3.00000
     eigenvalues:
       0.500  0.500  0.500
     eigenvectors (columns):
       1.000  0.000  0.000
       0.000  1.000  0.000
       0.000  0.000  1.000
     occupation matrix ns (before diag.):
       0.500  0.000  0.000
       0.000  0.500  0.000
       0.000  0.000  0.500
     ------------------------ ATOM   33 ------------------------
     Tr[ns( 33)] =   1.00000
     eigenvalues:
       0.167  0.167  0.167
     eigenvectors (columns):
       1.000  0.000  0.000
       0.000  1.000  0.000
       0.000  0.000  1.000
     occupation matrix ns (before diag.):
       0.167  0.000  0.000
       0.000  0.167  0.000
       0.000  0.000  0.167
     ------------------------ ATOM   34 ------------------------
     Tr[ns( 34)] =   1.00000
     eigenvalues:
       0.167  0.167  0.167
     eigenvectors (columns):
       1.000  0.000  0.000
       0.000  1.000  0.000
       0.000  0.000  1.000
     occupation matrix ns (before diag.):
       0.167  0.000  0.000
       0.000  0.167  0.000
       0.000  0.000  0.167
     ------------------------ ATOM   35 ------------------------
     Tr[ns( 35)] =   1.00000
     eigenvalues:
       0.167  0.167  0.167
     eigenvectors (columns):
       1.000  0.000  0.000
       0.000  1.000  0.000
       0.000  0.000  1.000
     occupation matrix ns (before diag.):
       0.167  0.000  0.000
       0.000  0.167  0.000
       0.000  0.000  0.167
     ------------------------ ATOM   36 ------------------------
     Tr[ns( 36)] =   1.00000
     eigenvalues:
       0.167  0.167  0.167
     eigenvectors (columns):
       1.000  0.000  0.000
       0.000  1.000  0.000
       0.000  0.000  1.000
     occupation matrix ns (before diag.):
       0.167  0.000  0.000
       0.000  0.167  0.000
       0.000  0.000  0.167
     ------------------------ ATOM   37 ------------------------
     Tr[ns( 37)] =   3.00000
     eigenvalues:
       0.500  0.500  0.500
     eigenvectors (columns):
       1.000  0.000  0.000
       0.000  1.000  0.000
       0.000  0.000  1.000
     occupation matrix ns (before diag.):
       0.500  0.000  0.000
       0.000  0.500  0.000
       0.000  0.000  0.500
     ------------------------ ATOM   38 ------------------------
     Tr[ns( 38)] =   3.00000
     eigenvalues:
       0.500  0.500  0.500
     eigenvectors (columns):
       1.000  0.000  0.000
       0.000  1.000  0.000
       0.000  0.000  1.000
     occupation matrix ns (before diag.):
       0.500  0.000  0.000
       0.000  0.500  0.000
       0.000  0.000  0.500
     ------------------------ ATOM   39 ------------------------
     Tr[ns( 39)] =   3.00000
     eigenvalues:
       0.500  0.500  0.500
     eigenvectors (columns):
       1.000  0.000  0.000
       0.000  1.000  0.000
       0.000  0.000  1.000
     occupation matrix ns (before diag.):
       0.500  0.000  0.000
       0.000  0.500  0.000
       0.000  0.000  0.500
     ------------------------ ATOM   40 ------------------------
     Tr[ns( 40)] =   3.00000
     eigenvalues:
       0.500  0.500  0.500
     eigenvectors (columns):
       1.000  0.000  0.000
       0.000  1.000  0.000
       0.000  0.000  1.000
     occupation matrix ns (before diag.):
       0.500  0.000  0.000
       0.000  0.500  0.000
       0.000  0.000  0.500
     ------------------------ ATOM   41 ------------------------
     Tr[ns( 41)] =   1.00000
     eigenvalues:
       0.167  0.167  0.167
     eigenvectors (columns):
       1.000  0.000  0.000
       0.000  1.000  0.000
       0.000  0.000  1.000
     occupation matrix ns (before diag.):
       0.167  0.000  0.000
       0.000  0.167  0.000
       0.000  0.000  0.167
     ------------------------ ATOM   42 ------------------------
     Tr[ns( 42)] =   1.00000
     eigenvalues:
       0.167  0.167  0.167
     eigenvectors (columns):
       1.000  0.000  0.000
       0.000  1.000  0.000
       0.000  0.000  1.000
     occupation matrix ns (before diag.):
       0.167  0.000  0.000
       0.000  0.167  0.000
       0.000  0.000  0.167
     ------------------------ ATOM   43 ------------------------
     Tr[ns( 43)] =   1.00000
     eigenvalues:
       0.167  0.167  0.167
     eigenvectors (columns):
       1.000  0.000  0.000
       0.000  1.000  0.000
       0.000  0.000  1.000
     occupation matrix ns (before diag.):
       0.167  0.000  0.000
       0.000  0.167  0.000
       0.000  0.000  0.167
     ------------------------ ATOM   44 ------------------------
     Tr[ns( 44)] =   1.00000
     eigenvalues:
       0.167  0.167  0.167
     eigenvectors (columns):
       1.000  0.000  0.000
       0.000  1.000  0.000
       0.000  0.000  1.000
     occupation matrix ns (before diag.):
       0.167  0.000  0.000
       0.000  0.167  0.000
       0.000  0.000  0.167
     ------------------------ ATOM   45 ------------------------
     Tr[ns( 45)] =   3.00000
     eigenvalues:
       0.500  0.500  0.500
     eigenvectors (columns):
       1.000  0.000  0.000
       0.000  1.000  0.000
       0.000  0.000  1.000
     occupation matrix ns (before diag.):
       0.500  0.000  0.000
       0.000  0.500  0.000
       0.000  0.000  0.500
     ------------------------ ATOM   46 ------------------------
     Tr[ns( 46)] =   3.00000
     eigenvalues:
       0.500  0.500  0.500
     eigenvectors (columns):
       1.000  0.000  0.000
       0.000  1.000  0.000
       0.000  0.000  1.000
     occupation matrix ns (before diag.):
       0.500  0.000  0.000
       0.000  0.500  0.000
       0.000  0.000  0.500
     ------------------------ ATOM   47 ------------------------
     Tr[ns( 47)] =   3.00000
     eigenvalues:
       0.500  0.500  0.500
     eigenvectors (columns):
       1.000  0.000  0.000
       0.000  1.000  0.000
       0.000  0.000  1.000
     occupation matrix ns (before diag.):
       0.500  0.000  0.000
       0.000  0.500  0.000
       0.000  0.000  0.500
     ------------------------ ATOM   48 ------------------------
     Tr[ns( 48)] =   3.00000
     eigenvalues:
       0.500  0.500  0.500
     eigenvectors (columns):
       1.000  0.000  0.000
       0.000  1.000  0.000
       0.000  0.000  1.000
     occupation matrix ns (before diag.):
       0.500  0.000  0.000
       0.000  0.500  0.000
       0.000  0.000  0.500
     ------------------------ ATOM   49 ------------------------
     Tr[ns( 49)] =   1.00000
     eigenvalues:
       0.167  0.167  0.167
     eigenvectors (columns):
       1.000  0.000  0.000
       0.000  1.000  0.000
       0.000  0.000  1.000
     occupation matrix ns (before diag.):
       0.167  0.000  0.000
       0.000  0.167  0.000
       0.000  0.000  0.167
     ------------------------ ATOM   50 ------------------------
     Tr[ns( 50)] =   1.00000
     eigenvalues:
       0.167  0.167  0.167
     eigenvectors (columns):
       1.000  0.000  0.000
       0.000  1.000  0.000
       0.000  0.000  1.000
     occupation matrix ns (before diag.):
       0.167  0.000  0.000
       0.000  0.167  0.000
       0.000  0.000  0.167
     ------------------------ ATOM   51 ------------------------
     Tr[ns( 51)] =   1.00000
     eigenvalues:
       0.167  0.167  0.167
     eigenvectors (columns):
       1.000  0.000  0.000
       0.000  1.000  0.000
       0.000  0.000  1.000
     occupation matrix ns (before diag.):
       0.167  0.000  0.000
       0.000  0.167  0.000
       0.000  0.000  0.167
     ------------------------ ATOM   52 ------------------------
     Tr[ns( 52)] =   1.00000
     eigenvalues:
       0.167  0.167  0.167
     eigenvectors (columns):
       1.000  0.000  0.000
       0.000  1.000  0.000
       0.000  0.000  1.000
     occupation matrix ns (before diag.):
       0.167  0.000  0.000
       0.000  0.167  0.000
       0.000  0.000  0.167
     ------------------------ ATOM   53 ------------------------
     Tr[ns( 53)] =   3.00000
     eigenvalues:
       0.500  0.500  0.500
     eigenvectors (columns):
       1.000  0.000  0.000
       0.000  1.000  0.000
       0.000  0.000  1.000
     occupation matrix ns (before diag.):
       0.500  0.000  0.000
       0.000  0.500  0.000
       0.000  0.000  0.500
     ------------------------ ATOM   54 ------------------------
     Tr[ns( 54)] =   3.00000
     eigenvalues:
       0.500  0.500  0.500
     eigenvectors (columns):
       1.000  0.000  0.000
       0.000  1.000  0.000
       0.000  0.000  1.000
     occupation matrix ns (before diag.):
       0.500  0.000  0.000
       0.000  0.500  0.000
       0.000  0.000  0.500
     ------------------------ ATOM   55 ------------------------
     Tr[ns( 55)] =   3.00000
     eigenvalues:
       0.500  0.500  0.500
     eigenvectors (columns):
       1.000  0.000  0.000
       0.000  1.000  0.000
       0.000  0.000  1.000
     occupation matrix ns (before diag.):
       0.500  0.000  0.000
       0.000  0.500  0.000
       0.000  0.000  0.500
     ------------------------ ATOM   56 ------------------------
     Tr[ns( 56)] =   3.00000
     eigenvalues:
       0.500  0.500  0.500
     eigenvectors (columns):
       1.000  0.000  0.000
       0.000  1.000  0.000
       0.000  0.000  1.000
     occupation matrix ns (before diag.):
       0.500  0.000  0.000
       0.000  0.500  0.000
       0.000  0.000  0.500
     ------------------------ ATOM   57 ------------------------
     Tr[ns( 57)] =   1.00000
     eigenvalues:
       0.167  0.167  0.167
     eigenvectors (columns):
       1.000  0.000  0.000
       0.000  1.000  0.000
       0.000  0.000  1.000
     occupation matrix ns (before diag.):
       0.167  0.000  0.000
       0.000  0.167  0.000
       0.000  0.000  0.167
     ------------------------ ATOM   58 ------------------------
     Tr[ns( 58)] =   1.00000
     eigenvalues:
       0.167  0.167  0.167
     eigenvectors (columns):
       1.000  0.000  0.000
       0.000  1.000  0.000
       0.000  0.000  1.000
     occupation matrix ns (before diag.):
       0.167  0.000  0.000
       0.000  0.167  0.000
       0.000  0.000  0.167
     ------------------------ ATOM   59 ------------------------
     Tr[ns( 59)] =   1.00000
     eigenvalues:
       0.167  0.167  0.167
     eigenvectors (columns):
       1.000  0.000  0.000
       0.000  1.000  0.000
       0.000  0.000  1.000
     occupation matrix ns (before diag.):
       0.167  0.000  0.000
       0.000  0.167  0.000
       0.000  0.000  0.167
     ------------------------ ATOM   60 ------------------------
     Tr[ns( 60)] =   1.00000
     eigenvalues:
       0.167  0.167  0.167
     eigenvectors (columns):
       1.000  0.000  0.000
       0.000  1.000  0.000
       0.000  0.000  1.000
     occupation matrix ns (before diag.):
       0.167  0.000  0.000
       0.000  0.167  0.000
       0.000  0.000  0.167
     ------------------------ ATOM   61 ------------------------
     Tr[ns( 61)] =   3.00000
     eigenvalues:
       0.500  0.500  0.500
     eigenvectors (columns):
       1.000  0.000  0.000
       0.000  1.000  0.000
       0.000  0.000  1.000
     occupation matrix ns (before diag.):
       0.500  0.000  0.000
       0.000  0.500  0.000
       0.000  0.000  0.500
     ------------------------ ATOM   62 ------------------------
     Tr[ns( 62)] =   3.00000
     eigenvalues:
       0.500  0.500  0.500
     eigenvectors (columns):
       1.000  0.000  0.000
       0.000  1.000  0.000
       0.000  0.000  1.000
     occupation matrix ns (before diag.):
       0.500  0.000  0.000
       0.000  0.500  0.000
       0.000  0.000  0.500
     ------------------------ ATOM   63 ------------------------
     Tr[ns( 63)] =   3.00000
     eigenvalues:
       0.500  0.500  0.500
     eigenvectors (columns):
       1.000  0.000  0.000
       0.000  1.000  0.000
       0.000  0.000  1.000
     occupation matrix ns (before diag.):
       0.500  0.000  0.000
       0.000  0.500  0.000
       0.000  0.000  0.500
     ------------------------ ATOM   64 ------------------------
     Tr[ns( 64)] =   3.00000
     eigenvalues:
       0.500  0.500  0.500
     eigenvectors (columns):
       1.000  0.000  0.000
       0.000  1.000  0.000
       0.000  0.000  1.000
     occupation matrix ns (before diag.):
       0.500  0.000  0.000
       0.000  0.500  0.000
       0.000  0.000  0.500
     ------------------------ ATOM   65 ------------------------
     Tr[ns( 65)] =   1.00000
     eigenvalues:
       0.167  0.167  0.167
     eigenvectors (columns):
       1.000  0.000  0.000
       0.000  1.000  0.000
       0.000  0.000  1.000
     occupation matrix ns (before diag.):
       0.167  0.000  0.000
       0.000  0.167  0.000
       0.000  0.000  0.167
     ------------------------ ATOM   66 ------------------------
     Tr[ns( 66)] =   1.00000
     eigenvalues:
       0.167  0.167  0.167
     eigenvectors (columns):
       1.000  0.000  0.000
       0.000  1.000  0.000
       0.000  0.000  1.000
     occupation matrix ns (before diag.):
       0.167  0.000  0.000
       0.000  0.167  0.000
       0.000  0.000  0.167
     ------------------------ ATOM   67 ------------------------
     Tr[ns( 67)] =   1.00000
     eigenvalues:
       0.167  0.167  0.167
     eigenvectors (columns):
       1.000  0.000  0.000
       0.000  1.000  0.000
       0.000  0.000  1.000
     occupation matrix ns (before diag.):
       0.167  0.000  0.000
       0.000  0.167  0.000
       0.000  0.000  0.167
     ------------------------ ATOM   68 ------------------------
     Tr[ns( 68)] =   1.00000
     eigenvalues:
       0.167  0.167  0.167
     eigenvectors (columns):
       1.000  0.000  0.000
       0.000  1.000  0.000
       0.000  0.000  1.000
     occupation matrix ns (before diag.):
       0.167  0.000  0.000
       0.000  0.167  0.000
       0.000  0.000  0.167
     ------------------------ ATOM   69 ------------------------
     Tr[ns( 69)] =   3.00000
     eigenvalues:
       0.500  0.500  0.500
     eigenvectors (columns):
       1.000  0.000  0.000
       0.000  1.000  0.000
       0.000  0.000  1.000
     occupation matrix ns (before diag.):
       0.500  0.000  0.000
       0.000  0.500  0.000
       0.000  0.000  0.500
     ------------------------ ATOM   70 ------------------------
     Tr[ns( 70)] =   3.00000
     eigenvalues:
       0.500  0.500  0.500
     eigenvectors (columns):
       1.000  0.000  0.000
       0.000  1.000  0.000
       0.000  0.000  1.000
     occupation matrix ns (before diag.):
       0.500  0.000  0.000
       0.000  0.500  0.000
       0.000  0.000  0.500
     ------------------------ ATOM   71 ------------------------
     Tr[ns( 71)] =   3.00000
     eigenvalues:
       0.500  0.500  0.500
     eigenvectors (columns):
       1.000  0.000  0.000
       0.000  1.000  0.000
       0.000  0.000  1.000
     occupation matrix ns (before diag.):
       0.500  0.000  0.000
       0.000  0.500  0.000
       0.000  0.000  0.500
     ------------------------ ATOM   72 ------------------------
     Tr[ns( 72)] =   3.00000
     eigenvalues:
       0.500  0.500  0.500
     eigenvectors (columns):
       1.000  0.000  0.000
       0.000  1.000  0.000
       0.000  0.000  1.000
     occupation matrix ns (before diag.):
       0.500  0.000  0.000
       0.000  0.500  0.000
       0.000  0.000  0.500
     ------------------------ ATOM   73 ------------------------
     Tr[ns( 73)] =   1.00000
     eigenvalues:
       0.167  0.167  0.167
     eigenvectors (columns):
       1.000  0.000  0.000
       0.000  1.000  0.000
       0.000  0.000  1.000
     occupation matrix ns (before diag.):
       0.167  0.000  0.000
       0.000  0.167  0.000
       0.000  0.000  0.167
     ------------------------ ATOM   74 ------------------------
     Tr[ns( 74)] =   1.00000
     eigenvalues:
       0.167  0.167  0.167
     eigenvectors (columns):
       1.000  0.000  0.000
       0.000  1.000  0.000
       0.000  0.000  1.000
     occupation matrix ns (before diag.):
       0.167  0.000  0.000
       0.000  0.167  0.000
       0.000  0.000  0.167
     ------------------------ ATOM   75 ------------------------
     Tr[ns( 75)] =   1.00000
     eigenvalues:
       0.167  0.167  0.167
     eigenvectors (columns):
       1.000  0.000  0.000
       0.000  1.000  0.000
       0.000  0.000  1.000
     occupation matrix ns (before diag.):
       0.167  0.000  0.000
       0.000  0.167  0.000
       0.000  0.000  0.167
     ------------------------ ATOM   76 ------------------------
     Tr[ns( 76)] =   1.00000
     eigenvalues:
       0.167  0.167  0.167
     eigenvectors (columns):
       1.000  0.000  0.000
       0.000  1.000  0.000
       0.000  0.000  1.000
     occupation matrix ns (before diag.):
       0.167  0.000  0.000
       0.000  0.167  0.000
       0.000  0.000  0.167
     ------------------------ ATOM   77 ------------------------
     Tr[ns( 77)] =   3.00000
     eigenvalues:
       0.500  0.500  0.500
     eigenvectors (columns):
       1.000  0.000  0.000
       0.000  1.000  0.000
       0.000  0.000  1.000
     occupation matrix ns (before diag.):
       0.500  0.000  0.000
       0.000  0.500  0.000
       0.000  0.000  0.500
     ------------------------ ATOM   78 ------------------------
     Tr[ns( 78)] =   3.00000
     eigenvalues:
       0.500  0.500  0.500
     eigenvectors (columns):
       1.000  0.000  0.000
       0.000  1.000  0.000
       0.000  0.000  1.000
     occupation matrix ns (before diag.):
       0.500  0.000  0.000
       0.000  0.500  0.000
       0.000  0.000  0.500
     ------------------------ ATOM   79 ------------------------
     Tr[ns( 79)] =   3.00000
     eigenvalues:
       0.500  0.500  0.500
     eigenvectors (columns):
       1.000  0.000  0.000
       0.000  1.000  0.000
       0.000  0.000  1.000
     occupation matrix ns (before diag.):
       0.500  0.000  0.000
       0.000  0.500  0.000
       0.000  0.000  0.500
     ------------------------ ATOM   80 ------------------------
     Tr[ns( 80)] =   3.00000
     eigenvalues:
       0.500  0.500  0.500
     eigenvectors (columns):
       1.000  0.000  0.000
       0.000  1.000  0.000
       0.000  0.000  1.000
     occupation matrix ns (before diag.):
       0.500  0.000  0.000
       0.000  0.500  0.000
       0.000  0.000  0.500
     ------------------------ ATOM   81 ------------------------
     Tr[ns( 81)] =   1.00000
     eigenvalues:
       0.167  0.167  0.167
     eigenvectors (columns):
       1.000  0.000  0.000
       0.000  1.000  0.000
       0.000  0.000  1.000
     occupation matrix ns (before diag.):
       0.167  0.000  0.000
       0.000  0.167  0.000
       0.000  0.000  0.167
     ------------------------ ATOM   82 ------------------------
     Tr[ns( 82)] =   1.00000
     eigenvalues:
       0.167  0.167  0.167
     eigenvectors (columns):
       1.000  0.000  0.000
       0.000  1.000  0.000
       0.000  0.000  1.000
     occupation matrix ns (before diag.):
       0.167  0.000  0.000
       0.000  0.167  0.000
       0.000  0.000  0.167
     ------------------------ ATOM   83 ------------------------
     Tr[ns( 83)] =   1.00000
     eigenvalues:
       0.167  0.167  0.167
     eigenvectors (columns):
       1.000  0.000  0.000
       0.000  1.000  0.000
       0.000  0.000  1.000
     occupation matrix ns (before diag.):
       0.167  0.000  0.000
       0.000  0.167  0.000
       0.000  0.000  0.167
     ------------------------ ATOM   84 ------------------------
     Tr[ns( 84)] =   1.00000
     eigenvalues:
       0.167  0.167  0.167
     eigenvectors (columns):
       1.000  0.000  0.000
       0.000  1.000  0.000
       0.000  0.000  1.000
     occupation matrix ns (before diag.):
       0.167  0.000  0.000
       0.000  0.167  0.000
       0.000  0.000  0.167
     ------------------------ ATOM   85 ------------------------
     Tr[ns( 85)] =   3.00000
     eigenvalues:
       0.500  0.500  0.500
     eigenvectors (columns):
       1.000  0.000  0.000
       0.000  1.000  0.000
       0.000  0.000  1.000
     occupation matrix ns (before diag.):
       0.500  0.000  0.000
       0.000  0.500  0.000
       0.000  0.000  0.500
     ------------------------ ATOM   86 ------------------------
     Tr[ns( 86)] =   3.00000
     eigenvalues:
       0.500  0.500  0.500
     eigenvectors (columns):
       1.000  0.000  0.000
       0.000  1.000  0.000
       0.000  0.000  1.000
     occupation matrix ns (before diag.):
       0.500  0.000  0.000
       0.000  0.500  0.000
       0.000  0.000  0.500
     ------------------------ ATOM   87 ------------------------
     Tr[ns( 87)] =   3.00000
     eigenvalues:
       0.500  0.500  0.500
     eigenvectors (columns):
       1.000  0.000  0.000
       0.000  1.000  0.000
       0.000  0.000  1.000
     occupation matrix ns (before diag.):
       0.500  0.000  0.000
       0.000  0.500  0.000
       0.000  0.000  0.500
     ------------------------ ATOM   88 ------------------------
     Tr[ns( 88)] =   3.00000
     eigenvalues:
       0.500  0.500  0.500
     eigenvectors (columns):
       1.000  0.000  0.000
       0.000  1.000  0.000
       0.000  0.000  1.000
     occupation matrix ns (before diag.):
       0.500  0.000  0.000
       0.000  0.500  0.000
       0.000  0.000  0.500
     ------------------------ ATOM   89 ------------------------
     Tr[ns( 89)] =   1.00000
     eigenvalues:
       0.167  0.167  0.167
     eigenvectors (columns):
       1.000  0.000  0.000
       0.000  1.000  0.000
       0.000  0.000  1.000
     occupation matrix ns (before diag.):
       0.167  0.000  0.000
       0.000  0.167  0.000
       0.000  0.000  0.167
     ------------------------ ATOM   90 ------------------------
     Tr[ns( 90)] =   1.00000
     eigenvalues:
       0.167  0.167  0.167
     eigenvectors (columns):
       1.000  0.000  0.000
       0.000  1.000  0.000
       0.000  0.000  1.000
     occupation matrix ns (before diag.):
       0.167  0.000  0.000
       0.000  0.167  0.000
       0.000  0.000  0.167
     ------------------------ ATOM   91 ------------------------
     Tr[ns( 91)] =   1.00000
     eigenvalues:
       0.167  0.167  0.167
     eigenvectors (columns):
       1.000  0.000  0.000
       0.000  1.000  0.000
       0.000  0.000  1.000
     occupation matrix ns (before diag.):
       0.167  0.000  0.000
       0.000  0.167  0.000
       0.000  0.000  0.167
     ------------------------ ATOM   92 ------------------------
     Tr[ns( 92)] =   1.00000
     eigenvalues:
       0.167  0.167  0.167
     eigenvectors (columns):
       1.000  0.000  0.000
       0.000  1.000  0.000
       0.000  0.000  1.000
     occupation matrix ns (before diag.):
       0.167  0.000  0.000
       0.000  0.167  0.000
       0.000  0.000  0.167
     ------------------------ ATOM   93 ------------------------
     Tr[ns( 93)] =   3.00000
     eigenvalues:
       0.500  0.500  0.500
     eigenvectors (columns):
       1.000  0.000  0.000
       0.000  1.000  0.000
       0.000  0.000  1.000
     occupation matrix ns (before diag.):
       0.500  0.000  0.000
       0.000  0.500  0.000
       0.000  0.000  0.500
     ------------------------ ATOM   94 ------------------------
     Tr[ns( 94)] =   3.00000
     eigenvalues:
       0.500  0.500  0.500
     eigenvectors (columns):
       1.000  0.000  0.000
       0.000  1.000  0.000
       0.000  0.000  1.000
     occupation matrix ns (before diag.):
       0.500  0.000  0.000
       0.000  0.500  0.000
       0.000  0.000  0.500
     ------------------------ ATOM   95 ------------------------
     Tr[ns( 95)] =   3.00000
     eigenvalues:
       0.500  0.500  0.500
     eigenvectors (columns):
       1.000  0.000  0.000
       0.000  1.000  0.000
       0.000  0.000  1.000
     occupation matrix ns (before diag.):
       0.500  0.000  0.000
       0.000  0.500  0.000
       0.000  0.000  0.500
     ------------------------ ATOM   96 ------------------------
     Tr[ns( 96)] =   3.00000
     eigenvalues:
       0.500  0.500  0.500
     eigenvectors (columns):
       1.000  0.000  0.000
       0.000  1.000  0.000
       0.000  0.000  1.000
     occupation matrix ns (before diag.):
       0.500  0.000  0.000
       0.000  0.500  0.000
       0.000  0.000  0.500
     ------------------------ ATOM   97 ------------------------
     Tr[ns( 97)] =   1.00000
     eigenvalues:
       0.167  0.167  0.167
     eigenvectors (columns):
       1.000  0.000  0.000
       0.000  1.000  0.000
       0.000  0.000  1.000
     occupation matrix ns (before diag.):
       0.167  0.000  0.000
       0.000  0.167  0.000
       0.000  0.000  0.167
     ------------------------ ATOM   98 ------------------------
     Tr[ns( 98)] =   1.00000
     eigenvalues:
       0.167  0.167  0.167
     eigenvectors (columns):
       1.000  0.000  0.000
       0.000  1.000  0.000
       0.000  0.000  1.000
     occupation matrix ns (before diag.):
       0.167  0.000  0.000
       0.000  0.167  0.000
       0.000  0.000  0.167
     ------------------------ ATOM   99 ------------------------
     Tr[ns( 99)] =   1.00000
     eigenvalues:
       0.167  0.167  0.167
     eigenvectors (columns):
       1.000  0.000  0.000
       0.000  1.000  0.000
       0.000  0.000  1.000
     occupation matrix ns (before diag.):
       0.167  0.000  0.000
       0.000  0.167  0.000
       0.000  0.000  0.167
     ------------------------ ATOM  100 ------------------------
     Tr[ns(100)] =   1.00000
     eigenvalues:
       0.167  0.167  0.167
     eigenvectors (columns):
       1.000  0.000  0.000
       0.000  1.000  0.000
       0.000  0.000  1.000
     occupation matrix ns (before diag.):
       0.167  0.000  0.000
       0.000  0.167  0.000
       0.000  0.000  0.167
     ------------------------ ATOM  101 ------------------------
     Tr[ns(101)] =   3.00000
     eigenvalues:
       0.500  0.500  0.500
     eigenvectors (columns):
       1.000  0.000  0.000
       0.000  1.000  0.000
       0.000  0.000  1.000
     occupation matrix ns (before diag.):
       0.500  0.000  0.000
       0.000  0.500  0.000
       0.000  0.000  0.500
     ------------------------ ATOM  102 ------------------------
     Tr[ns(102)] =   3.00000
     eigenvalues:
       0.500  0.500  0.500
     eigenvectors (columns):
       1.000  0.000  0.000
       0.000  1.000  0.000
       0.000  0.000  1.000
     occupation matrix ns (before diag.):
       0.500  0.000  0.000
       0.000  0.500  0.000
       0.000  0.000  0.500
     ------------------------ ATOM  103 ------------------------
     Tr[ns(103)] =   3.00000
     eigenvalues:
       0.500  0.500  0.500
     eigenvectors (columns):
       1.000  0.000  0.000
       0.000  1.000  0.000
       0.000  0.000  1.000
     occupation matrix ns (before diag.):
       0.500  0.000  0.000
       0.000  0.500  0.000
       0.000  0.000  0.500
     ------------------------ ATOM  104 ------------------------
     Tr[ns(104)] =   3.00000
     eigenvalues:
       0.500  0.500  0.500
     eigenvectors (columns):
       1.000  0.000  0.000
       0.000  1.000  0.000
       0.000  0.000  1.000
     occupation matrix ns (before diag.):
       0.500  0.000  0.000
       0.000  0.500  0.000
       0.000  0.000  0.500
     ------------------------ ATOM  105 ------------------------
     Tr[ns(105)] =   1.00000
     eigenvalues:
       0.167  0.167  0.167
     eigenvectors (columns):
       1.000  0.000  0.000
       0.000  1.000  0.000
       0.000  0.000  1.000
     occupation matrix ns (before diag.):
       0.167  0.000  0.000
       0.000  0.167  0.000
       0.000  0.000  0.167
     ------------------------ ATOM  106 ------------------------
     Tr[ns(106)] =   1.00000
     eigenvalues:
       0.167  0.167  0.167
     eigenvectors (columns):
       1.000  0.000  0.000
       0.000  1.000  0.000
       0.000  0.000  1.000
     occupation matrix ns (before diag.):
       0.167  0.000  0.000
       0.000  0.167  0.000
       0.000  0.000  0.167
     ------------------------ ATOM  107 ------------------------
     Tr[ns(107)] =   1.00000
     eigenvalues:
       0.167  0.167  0.167
     eigenvectors (columns):
       1.000  0.000  0.000
       0.000  1.000  0.000
       0.000  0.000  1.000
     occupation matrix ns (before diag.):
       0.167  0.000  0.000
       0.000  0.167  0.000
       0.000  0.000  0.167
     ------------------------ ATOM  108 ------------------------
     Tr[ns(108)] =   1.00000
     eigenvalues:
       0.167  0.167  0.167
     eigenvectors (columns):
       1.000  0.000  0.000
       0.000  1.000  0.000
       0.000  0.000  1.000
     occupation matrix ns (before diag.):
       0.167  0.000  0.000
       0.000  0.167  0.000
       0.000  0.000  0.167
     ------------------------ ATOM  109 ------------------------
     Tr[ns(109)] =   3.00000
     eigenvalues:
       0.500  0.500  0.500
     eigenvectors (columns):
       1.000  0.000  0.000
       0.000  1.000  0.000
       0.000  0.000  1.000
     occupation matrix ns (before diag.):
       0.500  0.000  0.000
       0.000  0.500  0.000
       0.000  0.000  0.500
     ------------------------ ATOM  110 ------------------------
     Tr[ns(110)] =   3.00000
     eigenvalues:
       0.500  0.500  0.500
     eigenvectors (columns):
       1.000  0.000  0.000
       0.000  1.000  0.000
       0.000  0.000  1.000
     occupation matrix ns (before diag.):
       0.500  0.000  0.000
       0.000  0.500  0.000
       0.000  0.000  0.500
     ------------------------ ATOM  111 ------------------------
     Tr[ns(111)] =   3.00000
     eigenvalues:
       0.500  0.500  0.500
     eigenvectors (columns):
       1.000  0.000  0.000
       0.000  1.000  0.000
       0.000  0.000  1.000
     occupation matrix ns (before diag.):
       0.500  0.000  0.000
       0.000  0.500  0.000
       0.000  0.000  0.500
     ------------------------ ATOM  112 ------------------------
     Tr[ns(112)] =   3.00000
     eigenvalues:
       0.500  0.500  0.500
     eigenvectors (columns):
       1.000  0.000  0.000
       0.000  1.000  0.000
       0.000  0.000  1.000
     occupation matrix ns (before diag.):
       0.500  0.000  0.000
       0.000  0.500  0.000
       0.000  0.000  0.500
     ------------------------ ATOM  113 ------------------------
     Tr[ns(113)] =   1.00000
     eigenvalues:
       0.167  0.167  0.167
     eigenvectors (columns):
       1.000  0.000  0.000
       0.000  1.000  0.000
       0.000  0.000  1.000
     occupation matrix ns (before diag.):
       0.167  0.000  0.000
       0.000  0.167  0.000
       0.000  0.000  0.167
     ------------------------ ATOM  114 ------------------------
     Tr[ns(114)] =   1.00000
     eigenvalues:
       0.167  0.167  0.167
     eigenvectors (columns):
       1.000  0.000  0.000
       0.000  1.000  0.000
       0.000  0.000  1.000
     occupation matrix ns (before diag.):
       0.167  0.000  0.000
       0.000  0.167  0.000
       0.000  0.000  0.167
     ------------------------ ATOM  115 ------------------------
     Tr[ns(115)] =   1.00000
     eigenvalues:
       0.167  0.167  0.167
     eigenvectors (columns):
       1.000  0.000  0.000
       0.000  1.000  0.000
       0.000  0.000  1.000
     occupation matrix ns (before diag.):
       0.167  0.000  0.000
       0.000  0.167  0.000
       0.000  0.000  0.167
     ------------------------ ATOM  116 ------------------------
     Tr[ns(116)] =   1.00000
     eigenvalues:
       0.167  0.167  0.167
     eigenvectors (columns):
       1.000  0.000  0.000
       0.000  1.000  0.000
       0.000  0.000  1.000
     occupation matrix ns (before diag.):
       0.167  0.000  0.000
       0.000  0.167  0.000
       0.000  0.000  0.167
     ------------------------ ATOM  117 ------------------------
     Tr[ns(117)] =   3.00000
     eigenvalues:
       0.500  0.500  0.500
     eigenvectors (columns):
       1.000  0.000  0.000
       0.000  1.000  0.000
       0.000  0.000  1.000
     occupation matrix ns (before diag.):
       0.500  0.000  0.000
       0.000  0.500  0.000
       0.000  0.000  0.500
     ------------------------ ATOM  118 ------------------------
     Tr[ns(118)] =   3.00000
     eigenvalues:
       0.500  0.500  0.500
     eigenvectors (columns):
       1.000  0.000  0.000
       0.000  1.000  0.000
       0.000  0.000  1.000
     occupation matrix ns (before diag.):
       0.500  0.000  0.000
       0.000  0.500  0.000
       0.000  0.000  0.500
     ------------------------ ATOM  119 ------------------------
     Tr[ns(119)] =   3.00000
     eigenvalues:
       0.500  0.500  0.500
     eigenvectors (columns):
       1.000  0.000  0.000
       0.000  1.000  0.000
       0.000  0.000  1.000
     occupation matrix ns (before diag.):
       0.500  0.000  0.000
       0.000  0.500  0.000
       0.000  0.000  0.500
     ------------------------ ATOM  120 ------------------------
     Tr[ns(120)] =   3.00000
     eigenvalues:
       0.500  0.500  0.500
     eigenvectors (columns):
       1.000  0.000  0.000
       0.000  1.000  0.000
       0.000  0.000  1.000
     occupation matrix ns (before diag.):
       0.500  0.000  0.000
       0.000  0.500  0.000
       0.000  0.000  0.500
     ------------------------ ATOM  121 ------------------------
     Tr[ns(121)] =   1.00000
     eigenvalues:
       0.167  0.167  0.167
     eigenvectors (columns):
       1.000  0.000  0.000
       0.000  1.000  0.000
       0.000  0.000  1.000
     occupation matrix ns (before diag.):
       0.167  0.000  0.000
       0.000  0.167  0.000
       0.000  0.000  0.167
     ------------------------ ATOM  122 ------------------------
     Tr[ns(122)] =   1.00000
     eigenvalues:
       0.167  0.167  0.167
     eigenvectors (columns):
       1.000  0.000  0.000
       0.000  1.000  0.000
       0.000  0.000  1.000
     occupation matrix ns (before diag.):
       0.167  0.000  0.000
       0.000  0.167  0.000
       0.000  0.000  0.167
     ------------------------ ATOM  123 ------------------------
     Tr[ns(123)] =   1.00000
     eigenvalues:
       0.167  0.167  0.167
     eigenvectors (columns):
       1.000  0.000  0.000
       0.000  1.000  0.000
       0.000  0.000  1.000
     occupation matrix ns (before diag.):
       0.167  0.000  0.000
       0.000  0.167  0.000
       0.000  0.000  0.167
     ------------------------ ATOM  124 ------------------------
     Tr[ns(124)] =   1.00000
     eigenvalues:
       0.167  0.167  0.167
     eigenvectors (columns):
       1.000  0.000  0.000
       0.000  1.000  0.000
       0.000  0.000  1.000
     occupation matrix ns (before diag.):
       0.167  0.000  0.000
       0.000  0.167  0.000
       0.000  0.000  0.167
     ------------------------ ATOM  125 ------------------------
     Tr[ns(125)] =   3.00000
     eigenvalues:
       0.500  0.500  0.500
     eigenvectors (columns):
       1.000  0.000  0.000
       0.000  1.000  0.000
       0.000  0.000  1.000
     occupation matrix ns (before diag.):
       0.500  0.000  0.000
       0.000  0.500  0.000
       0.000  0.000  0.500
     ------------------------ ATOM  126 ------------------------
     Tr[ns(126)] =   3.00000
     eigenvalues:
       0.500  0.500  0.500
     eigenvectors (columns):
       1.000  0.000  0.000
       0.000  1.000  0.000
       0.000  0.000  1.000
     occupation matrix ns (before diag.):
       0.500  0.000  0.000
       0.000  0.500  0.000
       0.000  0.000  0.500
     ------------------------ ATOM  127 ------------------------
     Tr[ns(127)] =   3.00000
     eigenvalues:
       0.500  0.500  0.500
     eigenvectors (columns):
       1.000  0.000  0.000
       0.000  1.000  0.000
       0.000  0.000  1.000
     occupation matrix ns (before diag.):
       0.500  0.000  0.000
       0.000  0.500  0.000
       0.000  0.000  0.500
     ------------------------ ATOM  128 ------------------------
     Tr[ns(128)] =   3.00000
     eigenvalues:
       0.500  0.500  0.500
     eigenvectors (columns):
       1.000  0.000  0.000
       0.000  1.000  0.000
       0.000  0.000  1.000
     occupation matrix ns (before diag.):
       0.500  0.000  0.000
       0.000  0.500  0.000
       0.000  0.000  0.500
     ------------------------ ATOM  129 ------------------------
     Tr[ns(129)] =   1.00000
     eigenvalues:
       0.167  0.167  0.167
     eigenvectors (columns):
       1.000  0.000  0.000
       0.000  1.000  0.000
       0.000  0.000  1.000
     occupation matrix ns (before diag.):
       0.167  0.000  0.000
       0.000  0.167  0.000
       0.000  0.000  0.167
     ------------------------ ATOM  130 ------------------------
     Tr[ns(130)] =   1.00000
     eigenvalues:
       0.167  0.167  0.167
     eigenvectors (columns):
       1.000  0.000  0.000
       0.000  1.000  0.000
       0.000  0.000  1.000
     occupation matrix ns (before diag.):
       0.167  0.000  0.000
       0.000  0.167  0.000
       0.000  0.000  0.167
     ------------------------ ATOM  131 ------------------------
     Tr[ns(131)] =   1.00000
     eigenvalues:
       0.167  0.167  0.167
     eigenvectors (columns):
       1.000  0.000  0.000
       0.000  1.000  0.000
       0.000  0.000  1.000
     occupation matrix ns (before diag.):
       0.167  0.000  0.000
       0.000  0.167  0.000
       0.000  0.000  0.167
     ------------------------ ATOM  132 ------------------------
     Tr[ns(132)] =   1.00000
     eigenvalues:
       0.167  0.167  0.167
     eigenvectors (columns):
       1.000  0.000  0.000
       0.000  1.000  0.000
       0.000  0.000  1.000
     occupation matrix ns (before diag.):
       0.167  0.000  0.000
       0.000  0.167  0.000
       0.000  0.000  0.167
     ------------------------ ATOM  133 ------------------------
     Tr[ns(133)] =   3.00000
     eigenvalues:
       0.500  0.500  0.500
     eigenvectors (columns):
       1.000  0.000  0.000
       0.000  1.000  0.000
       0.000  0.000  1.000
     occupation matrix ns (before diag.):
       0.500  0.000  0.000
       0.000  0.500  0.000
       0.000  0.000  0.500
     ------------------------ ATOM  134 ------------------------
     Tr[ns(134)] =   3.00000
     eigenvalues:
       0.500  0.500  0.500
     eigenvectors (columns):
       1.000  0.000  0.000
       0.000  1.000  0.000
       0.000  0.000  1.000
     occupation matrix ns (before diag.):
       0.500  0.000  0.000
       0.000  0.500  0.000
       0.000  0.000  0.500
     ------------------------ ATOM  135 ------------------------
     Tr[ns(135)] =   3.00000
     eigenvalues:
       0.500  0.500  0.500
     eigenvectors (columns):
       1.000  0.000  0.000
       0.000  1.000  0.000
       0.000  0.000  1.000
     occupation matrix ns (before diag.):
       0.500  0.000  0.000
       0.000  0.500  0.000
       0.000  0.000  0.500
     ------------------------ ATOM  136 ------------------------
     Tr[ns(136)] =   3.00000
     eigenvalues:
       0.500  0.500  0.500
     eigenvectors (columns):
       1.000  0.000  0.000
       0.000  1.000  0.000
       0.000  0.000  1.000
     occupation matrix ns (before diag.):
       0.500  0.000  0.000
       0.000  0.500  0.000
       0.000  0.000  0.500
     ------------------------ ATOM  137 ------------------------
     Tr[ns(137)] =   1.00000
     eigenvalues:
       0.167  0.167  0.167
     eigenvectors (columns):
       1.000  0.000  0.000
       0.000  1.000  0.000
       0.000  0.000  1.000
     occupation matrix ns (before diag.):
       0.167  0.000  0.000
       0.000  0.167  0.000
       0.000  0.000  0.167
     ------------------------ ATOM  138 ------------------------
     Tr[ns(138)] =   1.00000
     eigenvalues:
       0.167  0.167  0.167
     eigenvectors (columns):
       1.000  0.000  0.000
       0.000  1.000  0.000
       0.000  0.000  1.000
     occupation matrix ns (before diag.):
       0.167  0.000  0.000
       0.000  0.167  0.000
       0.000  0.000  0.167
     ------------------------ ATOM  139 ------------------------
     Tr[ns(139)] =   1.00000
     eigenvalues:
       0.167  0.167  0.167
     eigenvectors (columns):
       1.000  0.000  0.000
       0.000  1.000  0.000
       0.000  0.000  1.000
     occupation matrix ns (before diag.):
       0.167  0.000  0.000
       0.000  0.167  0.000
       0.000  0.000  0.167
     ------------------------ ATOM  140 ------------------------
     Tr[ns(140)] =   1.00000
     eigenvalues:
       0.167  0.167  0.167
     eigenvectors (columns):
       1.000  0.000  0.000
       0.000  1.000  0.000
       0.000  0.000  1.000
     occupation matrix ns (before diag.):
       0.167  0.000  0.000
       0.000  0.167  0.000
       0.000  0.000  0.167
     ------------------------ ATOM  141 ------------------------
     Tr[ns(141)] =   3.00000
     eigenvalues:
       0.500  0.500  0.500
     eigenvectors (columns):
       1.000  0.000  0.000
       0.000  1.000  0.000
       0.000  0.000  1.000
     occupation matrix ns (before diag.):
       0.500  0.000  0.000
       0.000  0.500  0.000
       0.000  0.000  0.500
     ------------------------ ATOM  142 ------------------------
     Tr[ns(142)] =   3.00000
     eigenvalues:
       0.500  0.500  0.500
     eigenvectors (columns):
       1.000  0.000  0.000
       0.000  1.000  0.000
       0.000  0.000  1.000
     occupation matrix ns (before diag.):
       0.500  0.000  0.000
       0.000  0.500  0.000
       0.000  0.000  0.500
     ------------------------ ATOM  143 ------------------------
     Tr[ns(143)] =   3.00000
     eigenvalues:
       0.500  0.500  0.500
     eigenvectors (columns):
       1.000  0.000  0.000
       0.000  1.000  0.000
       0.000  0.000  1.000
     occupation matrix ns (before diag.):
       0.500  0.000  0.000
       0.000  0.500  0.000
       0.000  0.000  0.500
     ------------------------ ATOM  144 ------------------------
     Tr[ns(144)] =   3.00000
     eigenvalues:
       0.500  0.500  0.500
     eigenvectors (columns):
       1.000  0.000  0.000
       0.000  1.000  0.000
       0.000  0.000  1.000
     occupation matrix ns (before diag.):
       0.500  0.000  0.000
       0.000  0.500  0.000
       0.000  0.000  0.500
     ------------------------ ATOM  145 ------------------------
     Tr[ns(145)] =   1.00000
     eigenvalues:
       0.167  0.167  0.167
     eigenvectors (columns):
       1.000  0.000  0.000
       0.000  1.000  0.000
       0.000  0.000  1.000
     occupation matrix ns (before diag.):
       0.167  0.000  0.000
       0.000  0.167  0.000
       0.000  0.000  0.167
     ------------------------ ATOM  146 ------------------------
     Tr[ns(146)] =   1.00000
     eigenvalues:
       0.167  0.167  0.167
     eigenvectors (columns):
       1.000  0.000  0.000
       0.000  1.000  0.000
       0.000  0.000  1.000
     occupation matrix ns (before diag.):
       0.167  0.000  0.000
       0.000  0.167  0.000
       0.000  0.000  0.167
     ------------------------ ATOM  147 ------------------------
     Tr[ns(147)] =   1.00000
     eigenvalues:
       0.167  0.167  0.167
     eigenvectors (columns):
       1.000  0.000  0.000
       0.000  1.000  0.000
       0.000  0.000  1.000
     occupation matrix ns (before diag.):
       0.167  0.000  0.000
       0.000  0.167  0.000
       0.000  0.000  0.167
     ------------------------ ATOM  148 ------------------------
     Tr[ns(148)] =   1.00000
     eigenvalues:
       0.167  0.167  0.167
     eigenvectors (columns):
       1.000  0.000  0.000
       0.000  1.000  0.000
       0.000  0.000  1.000
     occupation matrix ns (before diag.):
       0.167  0.000  0.000
       0.000  0.167  0.000
       0.000  0.000  0.167
     ------------------------ ATOM  149 ------------------------
     Tr[ns(149)] =   3.00000
     eigenvalues:
       0.500  0.500  0.500
     eigenvectors (columns):
       1.000  0.000  0.000
       0.000  1.000  0.000
       0.000  0.000  1.000
     occupation matrix ns (before diag.):
       0.500  0.000  0.000
       0.000  0.500  0.000
       0.000  0.000  0.500
     ------------------------ ATOM  150 ------------------------
     Tr[ns(150)] =   3.00000
     eigenvalues:
       0.500  0.500  0.500
     eigenvectors (columns):
       1.000  0.000  0.000
       0.000  1.000  0.000
       0.000  0.000  1.000
     occupation matrix ns (before diag.):
       0.500  0.000  0.000
       0.000  0.500  0.000
       0.000  0.000  0.500
     ------------------------ ATOM  151 ------------------------
     Tr[ns(151)] =   3.00000
     eigenvalues:
       0.500  0.500  0.500
     eigenvectors (columns):
       1.000  0.000  0.000
       0.000  1.000  0.000
       0.000  0.000  1.000
     occupation matrix ns (before diag.):
       0.500  0.000  0.000
       0.000  0.500  0.000
       0.000  0.000  0.500
     ------------------------ ATOM  152 ------------------------
[...]
   -19.6994 -19.6993 -19.6991 -19.6989 -19.6989 -19.6987 -19.6987 -19.6985
   -19.6984 -19.6983 -19.6982 -19.6980 -19.6979 -19.6978 -19.6976 -19.6974
   -19.6972 -19.6972 -19.6970 -19.6969 -19.6967 -19.6965 -19.6963 -19.6961
   -19.6960 -19.6959 -19.6959 -19.6958 -19.6954 -19.6951 -19.6948 -19.6948
   -19.6946 -19.6946 -19.6944 -19.6942 -19.6942 -19.6941 -19.6939 -19.6938
   -19.6938 -19.6938 -19.6935 -19.6934 -19.6934 -19.6933 -19.6932 -19.6931
   -19.6929 -19.6928 -19.6926 -19.6923 -19.6922 -19.6921 -19.6919 -19.6916
   -19.6915 -19.6914 -19.6913 -19.6912 -19.6911 -19.6910 -19.6908 -19.6906
   -19.6905 -19.6902 -19.6900 -19.6899 -19.6894 -19.6894 -19.6891 -19.6890
   -19.6889 -19.6887 -19.6887 -19.6883 -19.6881 -19.6881 -19.6879 -19.6877
   -19.6877 -19.6876 -19.6876 -19.6874 -19.6873 -19.6873 -19.6871 -19.6868
   -19.6867 -19.6866 -19.6861 -19.6860 -19.6860 -19.6859 -19.6856 -19.6855
   -19.6854 -19.6853 -19.6852 -19.6848 -19.6847 -19.6846 -19.6843 -19.6842
   -19.6842 -19.6841 -19.6840 -19.6837 -19.6836 -19.6835 -19.6832 -19.6831
   -19.6831 -19.6828 -19.6827 -19.6825 -19.6823 -19.6822 -19.6821 -19.6817
   -19.6817 -19.6816 -19.6816 -19.6816 -19.6813 -19.6811 -19.6808 -19.6807
   -19.6806 -19.6805 -19.6805 -19.6805 -19.6803 -19.6801 -19.6796 -19.6795
   -19.6792 -19.6790 -19.6789 -19.6787 -19.6784 -19.6783 -19.6779 -19.6777
   -19.6776 -19.6774 -19.6773 -19.6772 -19.6770 -19.6769 -19.6763 -19.6762
   -19.6757 -19.6756 -19.6755 -19.6755 -19.6753 -19.6748 -19.6747 -19.6745
   -19.6735 -19.6731 -19.6726 -19.6726 -19.6724 -19.6722 -19.6722 -19.6714
   -19.6712 -19.6711 -19.6708 -19.6706 -19.6698 -19.6692 -19.6689 -19.6688
   -19.6674 -19.6672 -19.6669 -19.6667 -19.6665 -19.6662 -19.6653 -19.6652
   -19.6651 -19.6648 -19.6643 -19.6638 -19.6626 -19.6625 -19.6625 -19.6621
   -19.6603 -19.6596 -19.6592 -19.6586 -19.6577 -19.6570 -19.6564 -19.6518
   -19.6497 -19.6462 -19.6443 -19.6425  -7.4818  -7.4775  -7.4735  -7.4692
    -7.4626  -7.4619  -7.4524  -7.4513  -7.4436  -7.4434  -7.4375  -7.4325
    -7.4273  -7.4265  -7.4252  -7.4231  -7.4222  -7.4151  -7.4133  -7.4123
    -7.4060  -7.4046  -7.4030  -7.3999  -7.3996  -7.3976  -7.3970  -7.3950
    -7.3944  -7.3941  -7.3925  -7.3917  -7.3903  -7.3898  -7.3886  -7.3858
    -7.3836  -7.3830  -7.3814  -7.3808  -7.3801  -7.3792  -7.3783  -7.3777
    -7.3770  -7.3750  -7.3750  -7.3737  -7.3731  -7.3728  -7.3716  -7.3705
    -7.3700  -7.3699  -7.3694  -7.3676  -7.3654  -7.3645  -7.3641  -7.3624
    -7.3618  -7.3598  -7.3589  -7.3580  -7.3577  -7.3575  -7.3569  -7.3562
    -7.3557  -7.3554  -7.3539  -7.3538  -7.3535  -7.3522  -7.3514  -7.3512
    -7.3509  -7.3497  -7.3497  -7.3487  -7.3482  -7.3478  -7.3474  -7.3467
    -7.3462  -7.3456  -7.3451  -7.3448  -7.3441  -7.3436  -7.3430  -7.3428
    -7.3421  -7.3417  -7.3400  -7.3391  -7.3387  -7.3385  -7.3380  -7.3378
    -7.3370  -7.3366  -7.3351  -7.3349  -7.3348  -7.3336  -7.3332  -7.3323
    -7.3313  -7.3305  -7.3296  -7.3290  -7.3286  -7.3285  -7.3278  -7.3271
    -7.3270  -7.3264  -7.3259  -7.3258  -7.3256  -7.3250  -7.3246  -7.3239
    -7.3230  -7.3226  -7.3223  -7.3218  -7.3216  -7.3212  -7.3209  -7.3207
    -7.3200  -7.3196  -7.3194  -7.3188  -7.3185  -7.3179  -7.3173  -7.3165
    -7.3154  -7.3152  -7.3145  -7.3144  -7.3141  -7.3139  -7.3132  -7.3126
    -7.3124  -7.3118  -7.3116  -7.3109  -7.3106  -7.3100  -7.3098  -7.3096
    -7.3093  -7.3091  -7.3084  -7.3082  -7.3070  -7.3067  -7.3062  -7.3056
    -7.3054  -7.3051  -7.3045  -7.3039  -7.3037  -7.3031  -7.3028  -7.3023
    -7.3021  -7.3020  -7.3018  -7.3010  -7.3006  -7.3005  -7.3003  -7.2994
    -7.2991  -7.2987  -7.2982  -7.2971  -7.2968  -7.2965  -7.2964  -7.2962
    -7.2953  -7.2950  -7.2947  -7.2939  -7.2934  -7.2930  -7.2920  -7.2919
    -7.2916  -7.2913  -7.2911  -7.2906  -7.2893  -7.2889  -7.2887  -7.2881
    -7.2877  -7.2869  -7.2866  -7.2861  -7.2856  -7.2850  -7.2846  -7.2840
    -7.2832  -7.2829  -7.2826  -7.2824  -7.2821  -7.2816  -7.2812  -7.2808
    -7.2801  -7.2799  -7.2798  -7.2794  -7.2790  -7.2787  -7.2786  -7.2780
    -7.2779  -7.2777  -7.2772  -7.2769  -7.2767  -7.2759  -7.2759  -7.2755
    -7.2748  -7.2746  -7.2739  -7.2734  -7.2733  -7.2728  -7.2725  -7.2720
    -7.2717  -7.2716  -7.2711  -7.2699  -7.2697  -7.2693  -7.2689  -7.2686
    -7.2682  -7.2675  -7.2674  -7.2673  -7.2668  -7.2663  -7.2658  -7.2656
    -7.2652  -7.2649  -7.2648  -7.2641  -7.2637  -7.2635  -7.2632  -7.2627
    -7.2622  -7.2617  -7.2616  -7.2612  -7.2610  -7.2606  -7.2602  -7.2599
    -7.2589  -7.2586  -7.2585  -7.2582  -7.2579  -7.2576  -7.2572  -7.2568
    -7.2563  -7.2559  -7.2556  -7.2553  -7.2548  -7.2545  -7.2533  -7.2530
    -7.2529  -7.2528  -7.2524  -7.2519  -7.2516  -7.2514  -7.2512  -7.2510
    -7.2506  -7.2503  -7.2499  -7.2497  -7.2487  -7.2483  -7.2479  -7.2475
    -7.2466  -7.2461  -7.2455  -7.2452  -7.2449  -7.2447  -7.2445  -7.2435
    -7.2433  -7.2430  -7.2425  -7.2425  -7.2421  -7.2418  -7.2414  -7.2407
    -7.2405  -7.2403  -7.2398  -7.2392  -7.2390  -7.2387  -7.2383  -7.2377
    -7.2374  -7.2372  -7.2369  -7.2366  -7.2362  -7.2358  -7.2354  -7.2350
    -7.2347  -7.2335  -7.2330  -7.2326  -7.2323  -7.2317  -7.2315  -7.2312
    -7.2306  -7.2296  -7.2293  -7.2292  -7.2287  -7.2286  -7.2284  -7.2280
    -7.2274  -7.2271  -7.2267  -7.2263  -7.2261  -7.2259  -7.2254  -7.2248
    -7.2246  -7.2241  -7.2239  -7.2237  -7.2233  -7.2231  -7.2228  -7.2221
    -7.2219  -7.2215  -7.2212  -7.2204  -7.2203  -7.2195  -7.2191  -7.2190
    -7.2190  -7.2187  -7.2181  -7.2181  -7.2177  -7.2172  -7.2171  -7.2164
    -7.2161  -7.2159  -7.2156  -7.2151  -7.2151  -7.2146  -7.2144  -7.2142
    -7.2140  -7.2135  -7.2132  -7.2130  -7.2127  -7.2121  -7.2115  -7.2111
    -7.2105  -7.2104  -7.2096  -7.2094  -7.2091  -7.2088  -7.2084  -7.2082
    -7.2078  -7.2075  -7.2070  -7.2066  -7.2064  -7.2059  -7.2058  -7.2052
    -7.2047  -7.2043  -7.2038  -7.2033  -7.2029  -7.2027  -7.2022  -7.2020
    -7.2017  -7.2010  -7.2002  -7.1997  -7.1990  -7.1988  -7.1985  -7.1981
    -7.1979  -7.1978  -7.1974  -7.1968  -7.1966  -7.1962  -7.1960  -7.1957
    -7.1955  -7.1952  -7.1949  -7.1942  -7.1939  -7.1939  -7.1924  -7.1919
    -7.1915  -7.1914  -7.1912  -7.1911  -7.1907  -7.1900  -7.1891  -7.1882
    -7.1879  -7.1873  -7.1863  -7.1860  -7.1851  -7.1846  -7.1833  -7.1828
    -7.1827  -7.1819  -7.1816  -7.1805  -7.1803  -7.1801  -7.1799  -7.1792
    -7.1776  -7.1770  -7.1768  -7.1764  -7.1758  -7.1751  -7.1747  -7.1739
    -7.1737  -7.1728  -7.1722  -7.1718  -7.1715  -7.1711  -7.1704  -7.1695
    -7.1693  -7.1692  -7.1682  -7.1681  -7.1670  -7.1669  -7.1661  -7.1657
    -7.1650  -7.1647  -7.1628  -7.1621  -7.1617  -7.1615  -7.1612  -7.1604
    -7.1598  -7.1597  -7.1593  -7.1589  -7.1583  -7.1571  -7.1560  -7.1550
    -7.1545  -7.1543  -7.1532  -7.1522  -7.1500  -7.1473  -7.1462  -7.1461
    -7.1455  -7.1449  -7.1429  -7.1423  -7.1412  -7.1409  -7.1364  -7.1353
    -7.1324  -7.1312  -7.1156  -7.1139  -7.1106  -7.1073  -7.1042  -7.1031
    -3.5081  -3.4351  -3.3670  -3.3454  -3.2674  -3.2370  -3.1698  -3.1605
    -3.1523  -3.1015  -3.0608  -3.0119  -3.0077  -2.9670  -2.9308  -2.8970
    -2.8809  -2.8315  -2.7731  -2.7126  -2.7077  -2.6718  -2.6420  -2.6114
    -2.5702  -2.5584  -2.5317  -2.5020  -2.4840  -2.4262  -2.4037  -2.3778
    -2.3578  -2.3284  -2.3187  -2.2889  -2.2722  -2.2461  -2.2322  -2.2208
    -2.1940  -2.1494  -2.1318  -2.1208  -2.0705  -2.0638  -2.0457  -2.0146
    -1.9937  -1.9765  -1.9678  -1.9459  -1.9367  -1.9279  -1.9139  -1.8902
    -1.8450  -1.8070  -1.7511  -1.6970  -1.6861  -1.6523  -1.6259  -1.6079
    -1.5839  -1.5535  -1.5331  -1.5150  -1.5128  -1.4954  -1.4755  -1.4630
    -1.4397  -1.4297  -1.4274  -1.4141  -1.3930  -1.3782  -1.3571  -1.3279
    -1.3090  -1.2722  -1.2502  -1.2231  -1.2044  -1.1868  -1.1697  -1.1542
    -1.1242  -1.1051  -1.0911  -1.0845  -1.0691  -1.0521  -1.0309  -1.0242
    -0.9772  -0.8918  -0.8743  -0.8467  -0.8396  -0.8125  -0.8070  -0.7706
    -0.7489  -0.7095  -0.6934  -0.6510  -0.3396  -0.1674  -0.1419  -0.0484
     0.0751   0.1040   0.1268   0.1500   0.1693   0.1812   0.1893   0.2148
     0.2579   0.2762   0.2975   0.3108   0.3275   0.3493   0.3789   0.4096
     0.4210   0.4646   0.4796   0.4992   0.5107   0.5562   0.5761   0.6039
     0.6392   0.6533   0.6631   0.6834   0.6884   0.7009   0.7128   0.7227
     0.7337   0.7382   0.7610   0.7631   0.7696   0.7805   0.7930   0.7973
     0.8069   0.8100   0.8174   0.8403   0.8585   0.8603   0.8715   0.8768
     0.8885   0.8983   0.9060   0.9328   0.9396   0.9623   0.9728   0.9947
     1.4386   1.5557   1.5687   1.6073   1.6239   1.6625   1.6768   1.7078
     1.7356   1.7760   1.7868   1.7955   1.8211   1.8507   1.8974   1.9194
     1.9395   1.9427   1.9494   1.9804   1.9827   2.0016   2.0180   2.0334
     2.0530   2.0606   2.0848   2.1162   2.8894   2.9397   2.9754   2.9925
     2.9999   3.0220   3.0444   3.0723   3.1036   3.1182   3.1298   3.1401
     3.1580   3.2029   3.2149   3.2258   3.3105   3.3375   3.3724   3.3838
     3.4161   3.4172   3.4366   3.4487   3.4629   3.4852   3.5013   3.5097
     3.5212   3.5372   3.5563   3.5711   3.5884   3.6023   3.6200   3.6289
     3.6498   3.6645   3.6864   3.6931   3.7056   3.7185   3.7304   3.7506
     3.7586   3.7812   3.7840   3.8065   3.8256   3.8285   3.8549   3.8634
     3.8777   3.8881   3.8984   3.9031   3.9105   3.9205   3.9376   3.9647
     3.9730   4.0115   4.0201   4.0652   4.2088   4.2516   4.2643   4.3012
     4.3172   4.3714   4.3862   4.4178   4.4306   4.4374   4.4562   4.4699
     4.4851   4.5017   4.5097   4.5395   4.5487   4.5637   4.5909   4.6013
     4.6040   4.6109   4.6412   4.6448   4.6572   4.6912   4.6964   4.7134
     4.7291   4.7424   4.7650   4.7696   4.7852   4.8046   4.8160   4.8179
     4.8299   4.8682   4.8706   4.8824   4.9066   4.9171   4.9395   4.9534
     4.9694   4.9799   5.0022   5.0169   5.0414   5.0466   5.0671   5.0734
     5.0973   5.1000   5.1233   5.1281   5.1428   5.1475   5.1620   5.1675
     5.1924   5.1987   5.2133   5.2244   5.2346   5.2464   5.2529   5.2758
     5.2955   5.3019   5.3205   5.3383   5.3430   5.3611   5.3741   5.3800
     5.3990   5.4059   5.4300   5.4346   5.4450   5.4635   5.4686   5.4791
     5.4951   5.5249   5.5537   5.5629   5.5762   5.5908   5.6060   5.6264
     5.6346   5.6445   5.6703   5.6787   5.6885   5.6891   5.7104   5.7252
     5.7267   5.7444   5.7612   5.7745   5.7884   5.7975   5.8174   5.8286
     5.8371   5.8601   5.8959   5.9153   5.9369   5.9769   5.9947   6.0245
     6.0462   6.0758   6.0840   6.1065   6.1411   6.1477   6.1539   6.1915
     6.1985   6.2405   6.2499   6.2689   6.2789   6.2934   6.3163   6.3396
     6.3613   6.3706   6.3784   6.3880   6.3917   6.4155   6.4197   6.4365
     6.4421   6.4546   6.4648   6.4861   6.5034   6.5127   6.5323   6.5353
     6.5540   6.5846   6.6165   6.6558   6.6732   6.6766   6.6945   6.7156
     6.7213   6.7431   6.7557   6.7755   6.7802   6.8033   6.8139   6.8359
     6.8896   6.9474   6.9658   7.0154   7.4232   7.4720   7.5145   7.6020
     9.0798   9.1644   9.2395   9.2682   9.2987   9.3036   9.3254   9.3744
     9.4384   9.4551   9.4651   9.4762   9.4980   9.5080   9.5405   9.5538
     9.5709   9.5735   9.5745   9.5946   9.6065   9.6245   9.6350   9.6361
     9.6585   9.6787   9.6902   9.7143   9.7342   9.7390   9.7473   9.7763
     9.8047   9.8244   9.8387   9.8548   9.8776   9.8849   9.8991   9.9090
     9.9120   9.9470   9.9526   9.9728   9.9800   9.9902   9.9952   9.9987
    10.0134  10.0235  10.0410  10.0468  10.0607  10.0780  10.0852  10.0947
    10.1023  10.1165  10.1366  10.1585  10.1701  10.1925  10.2071  10.2150
    10.2308  10.2406  10.2571  10.2763  10.2861  10.2962  10.2999  10.3138
    10.3157  10.3231  10.3335  10.3477  10.3527  10.3577  10.3678  10.3861
    10.3868  10.3919  10.4036  10.4173  10.4618  10.4655  10.4920  10.4956
    10.5108  10.5196  10.5288  10.5391  10.5583  10.5599  10.5768  10.5843
    10.6032  10.6126  10.6301  10.6361  10.6503  10.6558  10.6660  10.6821
    10.6987  10.7201  10.7384  10.7680  11.0822  11.0856  11.1199  11.1657
    11.2440  11.2858  11.3150  11.3221  11.3425  11.3528  11.3624  11.3847
    11.4014  11.4337  11.4448  11.4469  11.4565  11.4607  11.4833  11.4943
    11.5149  11.5175  11.5294  11.5399  11.5476  11.5649  11.5739  11.5799
    11.5859  11.5984  11.6071  11.6225  11.6250  11.6280  11.6478  11.6526
    11.6669  11.6789  11.6886  11.7002  11.7012  11.7135  11.7481  11.7557
    11.8878  11.9012  11.9174  11.9372  11.9549  11.9664  11.9719  11.9731
    11.9810  11.9978  12.0146  12.0247  12.0290  12.0440  12.0512  12.0637
    12.1443  12.1748  12.1843  12.1901  12.1957  12.2165  12.2223  12.2375
    12.2444  12.2494  12.2601  12.2689  12.2781  12.2849  12.2927  12.2971
    12.3072  12.3098  12.3177  12.3289  12.3395  12.3484  12.3506  12.3582
    12.3629  12.3773  12.3813  12.3953  12.4048  12.4092  12.4367  12.4418
    12.4449  12.4587  12.4626  12.4759  12.4779  12.4843  12.4924  12.5063
    12.5116  12.5244  12.5280  12.5397  12.5455  12.5671  12.5705  12.5812
    12.5844  12.5994  12.6115  12.6172  12.6353  12.6584  12.6747  12.6801
    12.7115  12.7315  12.7466  12.7825  12.8423  12.8783  12.8902  12.8932
    12.9002  12.9126  12.9322  12.9521  12.9822  12.9964  13.0175  13.0306
    13.0390  13.0559  13.0595  13.0704  13.0869  13.0974  13.1037  13.1076
    13.1145  13.1376  13.1380  13.1454  13.1534  13.1629  13.1754  13.1788
    13.1821  13.1971  13.2067  13.2091  13.2218  13.2230  13.2334  13.2429
    13.2537  13.2622  13.2677  13.2976  13.3086  13.3196  13.3297  13.3378
    13.3516  13.3674  13.3877  13.4060  13.4158  13.4253  13.4326  13.4500
    13.4590  13.4697  13.4857  13.4995  13.5687  13.6134  13.6243  13.6328
    13.6433  13.6531  13.6587  13.6740  13.6853  13.6985  13.7059  13.7102
    13.7166  13.7229  13.7309  13.7464  13.7581  13.7664  13.7711  13.7801
    13.7855  13.8002  13.8072  13.8183  13.8301  13.8375  13.8441  13.8493
    13.8507  13.8608  13.8694  13.8797  13.8949  13.9070  13.9122  13.9216
    13.9317  13.9367  13.9498  13.9588  13.9653  13.9681  13.9744  13.9853
    13.9870  14.0040  14.0045  14.0172  14.0274  14.0354  14.0487  14.0519
    14.0574  14.0609  14.0843  14.0897  14.0951  14.1052  14.1178  14.1223
    14.1317  14.1390  14.1464  14.1562  14.1568  14.1653  14.1821  14.1876
    14.3136  14.3508  14.3881  14.4018  14.4163  14.4371  14.4458  14.4724
    14.5604  14.6207  14.6566  14.6693  14.7139  14.7235  14.7550  14.8047
    14.8110  14.8685  14.8810  14.9159  14.9258  14.9331  14.9507  14.9610
    14.9883  14.9968  15.0058  15.0232  15.0290  15.0557  15.0630  15.0862
    15.1918  15.2228  15.2675  15.2829  15.2867  15.2914  15.3076  15.3287
    15.3425  15.3603  15.3753  15.3849  15.3976  15.4059  15.4176  15.4209
    15.4349  15.4412  15.4467  15.4552  15.4609  15.4745  15.4897  15.4961
    15.5037  15.5248  15.5255  15.5492  15.5586  15.5768  15.5904  15.6048
    15.6160  15.6342  15.6378  15.6580  15.6647  15.6814  15.6937  15.7072
    15.7159  15.7194  15.7431  15.7950  15.8039  15.8205  15.8358  15.8713
    15.8852  15.8935  15.9171  15.9465  15.9683  15.9930  16.0218  16.0349
    16.0506  16.0749  16.0952  16.1090  16.1353  16.1437  16.1804  16.1831
    16.1927  16.1969  16.2093  16.2182  16.2281  16.2411  16.2472  16.2526
    16.2705  16.2728  16.2788  16.2881  16.2989  16.3170  16.3227  16.3354
    16.3522  16.3620  16.3784  16.3923  16.4361  16.4492  16.4792  16.4838
    16.4935  16.5033  16.5199  16.5233  16.5464  16.5536  16.5549  16.5721
    16.5826  16.5980  16.6055  16.6112  16.6144  16.6372  16.6443  16.6591
    16.6650  16.6699  16.6739  16.6845  16.6936  16.7037  16.7079  16.7123
    16.7159  16.7383  16.7445  16.7457  16.7751  16.7766  16.7917  16.7950
    16.8197  16.8242  16.8349  16.8386  16.8583  16.8628  16.8809  16.8958
    16.9064  16.9153  16.9243  16.9298  16.9456  16.9544  16.9593  16.9700
    16.9834  17.0072  17.0121  17.0244  17.0381  17.0469  17.0502  17.0554
    17.0638  17.0714  17.0769  17.0850  17.0885  17.0984  17.1021  17.1085
    17.1137  17.1287  17.1305  17.1353  17.1399  17.1501  17.1560  17.1623
    17.1661  17.1687  17.1902  17.2022  17.2072  17.2181  17.2235  17.2349
    17.2431  17.2535  17.2576  17.2650  17.2795  17.2822  17.3053  17.3256
    17.3614  17.3940  17.4158  17.4353  17.4649  17.4881  17.5230  17.5572
    17.5914  17.6260  17.6488  17.6504  17.6534  17.6685  17.6815  17.6984
    17.7039  17.7090  17.7166  17.7237  17.7269  17.7346  17.7467  17.7513
    17.7659  17.7700  17.7803  17.7811  17.8016  17.8127  17.8145  17.8427
    17.8609  17.8745  17.9194  17.9336  17.9462  17.9590  17.9878  17.9986
    18.0057  18.0245  18.0334  18.0482  18.0594  18.0710  18.0849  18.0864
    18.0979  18.1207  18.1265  18.1511  18.1909  18.2081  18.2159  18.2418
    18.2578  18.2678  18.2773  18.3080  18.3498  18.3589  18.3747  18.3976
    18.4038  18.4077  18.4314  18.4403  18.4475  18.4586  18.4647  18.4752
    18.4846  18.4919  18.4990  18.5072  18.5105  18.5270  18.5397  18.5570
    18.5723  18.5780  18.5856  18.6053  18.6198  18.6234  18.6366  18.6515

     highest occupied, lowest unoccupied level (ev):     7.6429    8.3750

!    total energy              =  -36980.91187814 Ry
     estimated scf accuracy    <       0.00000397 Ry

     The total energy is the sum of the following terms:
     one-electron contribution =  -18753.53788600 Ry
     hartree contribution      =   11369.65366630 Ry
     xc contribution           =   -9493.32090497 Ry
     ewald contribution        =  -20104.42872319 Ry
     Hubbard energy            =       0.72196971 Ry

     convergence has been achieved in  12 iterations

     Writing all to output data dir ./tmp_In0.0Ga1.0As0.25Sb0.75_cube_3x3x3.8/In0.0Ga1.0As0.25Sb0.75_cube_3x3x3.8.save/ :
     XML data file, charge density, pseudopotentials, collected wavefunctions

     init_run     :    238.41s CPU    241.08s WALL (       1 calls)
     electrons    :   9039.70s CPU   9060.53s WALL (       1 calls)

     Called by init_run:
     wfcinit      :    228.06s CPU    230.30s WALL (       1 calls)
     potinit      :      2.05s CPU      2.12s WALL (       1 calls)
     hinit0       :      1.69s CPU      1.73s WALL (       1 calls)

     Called by electrons:
     c_bands      :   8769.11s CPU   8788.80s WALL (      13 calls)
     sum_band     :    265.41s CPU    265.92s WALL (      13 calls)
     v_of_rho     :      3.39s CPU      3.53s WALL (      13 calls)
     mix_rho      :      0.80s CPU      0.81s WALL (      13 calls)

     Called by c_bands:
     init_us_2    :     32.97s CPU     33.54s WALL (      28 calls)
     cegterg      :   8539.22s CPU   8557.53s WALL (      13 calls)

     Called by *egterg:
     cdiaghg      :    862.97s CPU    863.78s WALL (     129 calls)
     h_psi        :   4997.23s CPU   5007.29s WALL (     131 calls)
     g_psi        :      4.32s CPU      4.32s WALL (     117 calls)

     Called by h_psi:
     h_psi:calbec :    889.33s CPU    889.40s WALL (     131 calls)
     vloc_psi     :    661.38s CPU    662.87s WALL (     131 calls)
     add_vuspsi   :    872.58s CPU    875.16s WALL (     131 calls)
     vhpsi        :   2565.42s CPU   2565.58s WALL (     131 calls)

     General routines
     calbec       :   1125.59s CPU   1125.69s WALL (     276 calls)
     fft          :      3.06s CPU      3.20s WALL (     131 calls)
     ffts         :      0.19s CPU      0.20s WALL (      13 calls)
     fftw         :    652.06s CPU    653.65s WALL (  162258 calls)

     Parallel routines

     Hubbard U routines
     new_ns       :     62.97s CPU     62.99s WALL (      13 calls)
     vhpsi        :   2565.42s CPU   2565.58s WALL (     131 calls)

     PWSCF        :      2h35m CPU      2h36m WALL


   This run was terminated on:  20: 0:23  16Jun2025            

=------------------------------------------------------------------------------=
   JOB DONE.
=------------------------------------------------------------------------------=
