
     Program PWSCF v.7.3.1 starts on 16Jun2025 at 16:59:31 

     This program is part of the open-source Quantum ESPRESSO suite
     for quantum simulation of materials; please cite
         "P. Giannozzi et al., J. Phys.:Condens. Matter 21 395502 (2009);
         "P. Giannozzi et al., J. Phys.:Condens. Matter 29 465901 (2017);
         "P. Giannozzi et al., J. Chem. Phys. 152 154105 (2020);
          URL http://www.quantum-espresso.org", 
     in publications or presentations arising from this work. More details at
     http://www.quantum-espresso.org/quote

     Parallel version (MPI), running on   640 processors

     MPI processes distributed on     5 nodes
     430870 MiB available memory on the printing compute node when the environment starts

     Reading input from In0.0Ga1.0As0.5Sb0.5_cube_3x3x3.8.scf.in
Warning: card &CELL ignored
Warning: card   CELL_DOFREE = 'ALL', ignored
Warning: card / ignored

     Current dimensions of program PWSCF are:
     Max number of different atomic species (ntypx) = 10
     Max number of k-points (npk) =  40000
     Max angular momentum in pseudopotentials (lmaxx) =  4

     K-points division:     npool     =       8
     R & G space division:  proc/nbgrp/npool/nimage =      80
     Subspace diagonalization in iterative solution of the eigenvalue problem:
     one sub-group per band group will be used
     custom distributed-memory algorithm (size of sub-group:  8*  8 procs)


     Parallelization info
     --------------------
     sticks:   dense  smooth     PW     G-vecs:    dense   smooth      PW
     Min         534     534    137                83156    83156   10858
     Max         536     536    139                83161    83161   10864
     Sum       42745   42745  11025              6652641  6652641  868887

     Using Slab Decomposition



     bravais-lattice index     =            1
     lattice parameter (alat)  =      33.4614  a.u.
     unit-cell volume          =   37465.5683 (a.u.)^3
     number of atoms/cell      =          216
     number of atomic types    =            4
     number of electrons       =      3024.00
     number of Kohn-Sham states=         2160
     kinetic-energy cutoff     =     120.0000  Ry
     charge density cutoff     =     480.0000  Ry
     scf convergence threshold =      1.0E-05
     mixing beta               =       0.6500
     number of iterations used =            8  plain     mixing
     Exchange-correlation= PBE
                           (   1   4   3   4   0   0   0)
     Hubbard projectors: atomic
     Hubbard parameters of DFT+U (Dudarev formulation) in eV:
     U(As-4p) =  5.8400
     U(Ga-4p) = -2.8000
     U(In-5p) = -1.0150
     U(Sb-5p) =  4.8900

     Internal variables: lda_plus_u =T, lda_plus_u_kind = 0

     celldm(1)=  33.461400  celldm(2)=   0.000000  celldm(3)=   0.000000
     celldm(4)=   0.000000  celldm(5)=   0.000000  celldm(6)=   0.000000

     crystal axes: (cart. coord. in units of alat)
               a(1) = (   1.000000   0.000000   0.000000 )  
               a(2) = (   0.000000   1.000000   0.000000 )  
               a(3) = (   0.000000   0.000000   1.000000 )  

     reciprocal axes: (cart. coord. in units 2 pi/alat)
               b(1) = (  1.000000  0.000000  0.000000 )  
               b(2) = (  0.000000  1.000000  0.000000 )  
               b(3) = (  0.000000  0.000000  1.000000 )  


     PseudoPot. # 1 for As read from file:
     /work/i254/i254/gentles/data/pseudos/As.pbe.NC-SR.standard.v0.5.UPF
     MD5 check sum: bfe1a874457ce592347346129958e7cf
     Pseudo is Norm-conserving + core correction, Zval = 15.0
     Generated using ONCVPSP code by D. R. Hamann
     Using radial grid of 1358 points,  6 beta functions with: 
                l(1) =   0
                l(2) =   0
                l(3) =   1
                l(4) =   1
                l(5) =   2
                l(6) =   2

     PseudoPot. # 2 for Ga read from file:
     /work/i254/i254/gentles/data/pseudos/Ga.pbe.NC-SR.standard.v0.5.UPF
     MD5 check sum: 2bb81bf6f0a8d9832cf3329850435ecf
     Pseudo is Norm-conserving + core correction, Zval = 13.0
     Generated using ONCVPSP code by D. R. Hamann
     Using radial grid of 1902 points,  6 beta functions with: 
                l(1) =   0
                l(2) =   0
                l(3) =   1
                l(4) =   1
                l(5) =   2
                l(6) =   2

     PseudoPot. # 3 for In read from file:
     /work/i254/i254/gentles/data/pseudos/In.pbe.NC-SR.standard.v0.5.UPF
     MD5 check sum: 835f4bf908c982ff75c88e16816a8d7f
     Pseudo is Norm-conserving + core correction, Zval = 13.0
     Generated using ONCVPSP code by D. R. Hamann
     Using radial grid of 1964 points,  6 beta functions with: 
                l(1) =   0
                l(2) =   0
                l(3) =   1
                l(4) =   1
                l(5) =   2
                l(6) =   2

     PseudoPot. # 4 for Sb read from file:
     /work/i254/i254/gentles/data/pseudos/Sb.pbe.NC-SR.standard.v0.5.UPF
     MD5 check sum: 127f69b6101c45666faeae1b5d611565
     Pseudo is Norm-conserving + core correction, Zval = 15.0
     Generated using ONCVPSP code by D. R. Hamann
     Using radial grid of 1434 points,  6 beta functions with: 
                l(1) =   0
                l(2) =   0
                l(3) =   1
                l(4) =   1
                l(5) =   2
                l(6) =   2

     atomic species   valence    mass     pseudopotential
     As               15.00    74.92160     As( 1.00)
     Ga               13.00    69.72300     Ga( 1.00)
     In               13.00   114.81800     In( 1.00)
     Sb               15.00   121.76000     Sb( 1.00)

     No symmetry found



   Cartesian axes

     site n.     atom                  positions (alat units)
         1        Ga     tau(   1) = (   0.0013540   0.0018610  -0.0099070  )
         2        Ga     tau(   2) = (  -0.0079630   0.1712090   0.1614670  )
         3        Ga     tau(   3) = (   0.1716870  -0.0031810   0.1706880  )
         4        Ga     tau(   4) = (   0.1673760   0.1760280  -0.0025120  )
         5        Sb     tau(   5) = (   0.0846870   0.0850810   0.0823440  )
         6        Sb     tau(   6) = (   0.0846790   0.2488790   0.2480430  )
         7        As     tau(   7) = (   0.2545750   0.0792150   0.2478360  )
         8        As     tau(   8) = (   0.2534060   0.2475010   0.0808970  )
         9        Ga     tau(   9) = (   0.0037470  -0.0060490   0.3291660  )
        10        Ga     tau(  10) = (  -0.0082790   0.1609980   0.5047980  )
        11        Ga     tau(  11) = (   0.1663460  -0.0022990   0.5001840  )
        12        Ga     tau(  12) = (   0.1730320   0.1595220   0.3269760  )
        13        Sb     tau(  13) = (   0.0824490   0.0826240   0.4160740  )
        14        Sb     tau(  14) = (   0.0789730   0.2524130   0.5838380  )
        15        Sb     tau(  15) = (   0.2542830   0.0811050   0.5842580  )
        16        Sb     tau(  16) = (   0.2523140   0.2473470   0.4157870  )
        17        Ga     tau(  17) = (  -0.0100860  -0.0012800   0.6667550  )
        18        Ga     tau(  18) = (   0.0015690   0.1673720   0.8404340  )
        19        Ga     tau(  19) = (   0.1666540  -0.0091530   0.8310810  )
        20        Ga     tau(  20) = (   0.1669060   0.1660680   0.6670460  )
        21        Sb     tau(  21) = (   0.0806650   0.0803150   0.7507280  )
        22        As     tau(  22) = (   0.0801360   0.2528950   0.9173440  )
        23        Sb     tau(  23) = (   0.2511950   0.0818880   0.9163550  )
        24        Sb     tau(  24) = (   0.2509750   0.2500840   0.7532260  )
        25        Ga     tau(  25) = (  -0.0062020   0.3315420  -0.0041820  )
        26        Ga     tau(  26) = (  -0.0049770   0.5045750   0.1604000  )
        27        Ga     tau(  27) = (   0.1725360   0.3287670   0.1596420  )
        28        Ga     tau(  28) = (   0.1590240   0.5050500  -0.0052380  )
        29        Sb     tau(  29) = (   0.0809480   0.4150940   0.0802280  )
        30        Sb     tau(  30) = (   0.0805510   0.5862380   0.2513880  )
        31        Sb     tau(  31) = (   0.2502860   0.4175280   0.2480470  )
        32        Sb     tau(  32) = (   0.2508290   0.5825600   0.0818900  )
        33        Ga     tau(  33) = (   0.0033330   0.3370770   0.3370920  )
        34        Ga     tau(  34) = (  -0.0022080   0.5020040   0.5020940  )
        35        Ga     tau(  35) = (   0.1614010   0.3361040   0.4938440  )
        36        Ga     tau(  36) = (   0.1603620   0.4966440   0.3373140  )
        37        As     tau(  37) = (   0.0787730   0.4196650   0.4191710  )
        38        As     tau(  38) = (   0.0781450   0.5842560   0.5840840  )
        39        Sb     tau(  39) = (   0.2483050   0.4172740   0.5830110  )
        40        Sb     tau(  40) = (   0.2469890   0.5866700   0.4189690  )
        41        Ga     tau(  41) = (  -0.0030940   0.3437080   0.6679720  )
        42        Ga     tau(  42) = (  -0.0028670   0.5003880   0.8327020  )
        43        Ga     tau(  43) = (   0.1566680   0.3354520   0.8327290  )
        44        Ga     tau(  44) = (   0.1559720   0.5004840   0.6680200  )
        45        As     tau(  45) = (   0.0777960   0.4197200   0.7518250  )
        46        As     tau(  46) = (   0.0767540   0.5826520   0.9141860  )
        47        Sb     tau(  47) = (   0.2483320   0.4152510   0.9186310  )
        48        Sb     tau(  48) = (   0.2467950   0.5848260   0.7489870  )
        49        Ga     tau(  49) = (  -0.0043750   0.6630190  -0.0054650  )
        50        Ga     tau(  50) = (   0.0047360   0.8377100   0.1716980  )
        51        Ga     tau(  51) = (   0.1725790   0.6717930   0.1705940  )
        52        Ga     tau(  52) = (   0.1659390   0.8425140   0.0021460  )
        53        Sb     tau(  53) = (   0.0826000   0.7496620   0.0822320  )
        54        As     tau(  54) = (   0.0880860   0.9152490   0.2507250  )
        55        As     tau(  55) = (   0.2479220   0.7551010   0.2506860  )
        56        As     tau(  56) = (   0.2508450   0.9190050   0.0864380  )
        57        Ga     tau(  57) = (  -0.0010810   0.6666070   0.3457390  )
        58        Ga     tau(  58) = (  -0.0013300   0.8239950   0.5010180  )
        59        Ga     tau(  59) = (   0.1611430   0.6713700   0.5063050  )
        60        Ga     tau(  60) = (   0.1623160   0.8287680   0.3329160  )
        61        As     tau(  61) = (   0.0827880   0.7488330   0.4200280  )
        62        Sb     tau(  62) = (   0.0818380   0.9129240   0.5863430  )
        63        As     tau(  63) = (   0.2495170   0.7515280   0.5828530  )
        64        Sb     tau(  64) = (   0.2522480   0.9152770   0.4142170  )
        65        Ga     tau(  65) = (  -0.0069860   0.6635910   0.6630600  )
        66        Ga     tau(  66) = (  -0.0045990   0.8364510   0.8346740  )
        67        Ga     tau(  67) = (   0.1585970   0.6650810   0.8379950  )
        68        Ga     tau(  68) = (   0.1765200   0.8328620   0.6692580  )
        69        Sb     tau(  69) = (   0.0798120   0.7509900   0.7479770  )
        70        As     tau(  70) = (   0.0821390   0.9157980   0.9144610  )
        71        Sb     tau(  71) = (   0.2490400   0.7527010   0.9180370  )
        72        As     tau(  72) = (   0.2532080   0.9167690   0.7500950  )
        73        Ga     tau(  73) = (   0.3359640  -0.0019110   0.0055290  )
        74        Ga     tau(  74) = (   0.3295930   0.1608080   0.1616440  )
        75        Ga     tau(  75) = (   0.4910160   0.0027780   0.1675670  )
        76        Ga     tau(  76) = (   0.4976630   0.1715330   0.0065130  )
        77        As     tau(  77) = (   0.4151790   0.0839960   0.0831130  )
        78        Sb     tau(  78) = (   0.4189760   0.2462230   0.2474300  )
        79        Sb     tau(  79) = (   0.5839720   0.0833500   0.2515640  )
        80        As     tau(  80) = (   0.5816340   0.2544760   0.0843580  )
        81        Ga     tau(  81) = (   0.3401260   0.0036420   0.3309910  )
        82        Ga     tau(  82) = (   0.3432210   0.1638430   0.4998210  )
        83        Ga     tau(  83) = (   0.5019360  -0.0010160   0.4997560  )
        84        Ga     tau(  84) = (   0.5022410   0.1647880   0.3424720  )
        85        As     tau(  85) = (   0.4208070   0.0809630   0.4182430  )
        86        As     tau(  86) = (   0.4214870   0.2440210   0.5819440  )
        87        As     tau(  87) = (   0.5844370   0.0825280   0.5799160  )
        88        As     tau(  88) = (   0.5859980   0.2469570   0.4173260  )
        89        Ga     tau(  89) = (   0.3379030  -0.0030410   0.6718480  )
        90        Ga     tau(  90) = (   0.3433960   0.1661510   0.8346690  )
        91        Ga     tau(  91) = (   0.4914810   0.0023520   0.8342860  )
        92        Ga     tau(  92) = (   0.4985260   0.1587830   0.6623350  )
        93        As     tau(  93) = (   0.4172530   0.0828190   0.7488950  )
        94        As     tau(  94) = (   0.4195650   0.2493780   0.9208380  )
        95        Sb     tau(  95) = (   0.5811060   0.0855700   0.9174220  )
        96        Sb     tau(  96) = (   0.5827990   0.2463500   0.7488020  )
        97        Ga     tau(  97) = (   0.3373630   0.3276900   0.0033960  )
        98        Ga     tau(  98) = (   0.3412030   0.4951280   0.1601530  )
        99        Ga     tau(  99) = (   0.5035540   0.3367990   0.1639350  )
       100        Ga     tau( 100) = (   0.4958940   0.4954450  -0.0030510  )
       101        As     tau( 101) = (   0.4194110   0.4123070   0.0801980  )
       102        Sb     tau( 102) = (   0.4208240   0.5842210   0.2501900  )
       103        As     tau( 103) = (   0.5855880   0.4128530   0.2495250  )
       104        Sb     tau( 104) = (   0.5846270   0.5786720   0.0845170  )
       105        Ga     tau( 105) = (   0.3360220   0.3338300   0.3316410  )
       106        Ga     tau( 106) = (   0.3385280   0.5053340   0.5036670  )
       107        Ga     tau( 107) = (   0.5041500   0.3231230   0.5003350  )
       108        Ga     tau( 108) = (   0.5125520   0.4991560   0.3332660  )
       109        Sb     tau( 109) = (   0.4227730   0.4162730   0.4183400  )
       110        As     tau( 110) = (   0.4179630   0.5857290   0.5830020  )
       111        Sb     tau( 111) = (   0.5855090   0.4174660   0.5804060  )
       112        As     tau( 112) = (   0.5865270   0.5847250   0.4156850  )
       113        Ga     tau( 113) = (   0.3382090   0.3264000   0.6610850  )
       114        Ga     tau( 114) = (   0.3348720   0.5015950   0.8352290  )
       115        Ga     tau( 115) = (   0.5038780   0.3314850   0.8433620  )
       116        Ga     tau( 116) = (   0.4971820   0.5023340   0.6633040  )
       117        Sb     tau( 117) = (   0.4189330   0.4132850   0.7512850  )
       118        As     tau( 118) = (   0.4172180   0.5799100   0.9161370  )
       119        As     tau( 119) = (   0.5837010   0.4162720   0.9212660  )
       120        Sb     tau( 120) = (   0.5855280   0.5823360   0.7505070  )
       121        Ga     tau( 121) = (   0.3390000   0.6632310  -0.0035120  )
       122        Ga     tau( 122) = (   0.3283930   0.8391290   0.1722340  )
       123        Ga     tau( 123) = (   0.5085560   0.6743340   0.1719310  )
       124        Ga     tau( 124) = (   0.4953590   0.8391470  -0.0050100  )
       125        Sb     tau( 125) = (   0.4162430   0.7535740   0.0861240  )
       126        As     tau( 126) = (   0.4162360   0.9191910   0.2505480  )
       127        As     tau( 127) = (   0.5848530   0.7548460   0.2565660  )
       128        Sb     tau( 128) = (   0.5806670   0.9171450   0.0867900  )
       129        Ga     tau( 129) = (   0.3281100   0.6729320   0.3287480  )
       130        Ga     tau( 130) = (   0.3345140   0.8348630   0.5076440  )
       131        Ga     tau( 131) = (   0.5007980   0.6586020   0.4964790  )
       132        Ga     tau( 132) = (   0.5039300   0.8413790   0.3315730  )
       133        Sb     tau( 133) = (   0.4181770   0.7525060   0.4161650  )
       134        As     tau( 134) = (   0.4172850   0.9195320   0.5835830  )
       135        Sb     tau( 135) = (   0.5859160   0.7489490   0.5786970  )
       136        As     tau( 136) = (   0.5850160   0.9187820   0.4176090  )
       137        Ga     tau( 137) = (   0.3314190   0.6680340   0.6578430  )
       138        Ga     tau( 138) = (   0.3324780   0.8411900   0.8337920  )
       139        Ga     tau( 139) = (   0.4951620   0.6625460   0.8349510  )
       140        Ga     tau( 140) = (   0.4982320   0.8368720   0.6598200  )
       141        Sb     tau( 141) = (   0.4142450   0.7520440   0.7478980  )
       142        As     tau( 142) = (   0.4131220   0.9203320   0.9167210  )
       143        Sb     tau( 143) = (   0.5828960   0.7482050   0.9166480  )
       144        Sb     tau( 144) = (   0.5820160   0.9216000   0.7468680  )
       145        Ga     tau( 145) = (   0.6669340   0.0000590   0.0010750  )
       146        Ga     tau( 146) = (   0.6635180   0.1763580   0.1661620  )
       147        Ga     tau( 147) = (   0.8253600  -0.0070320   0.1722370  )
       148        Ga     tau( 148) = (   0.8415320   0.1641980  -0.0008670  )
       149        Sb     tau( 149) = (   0.7500040   0.0862490   0.0858240  )
       150        As     tau( 150) = (   0.7460680   0.2509520   0.2486940  )
       151        Sb     tau( 151) = (   0.9121940   0.0825000   0.2509620  )
       152        As     tau( 152) = (   0.9136530   0.2514780   0.0797670  )
       153        Ga     tau( 153) = (   0.6690830  -0.0020530   0.3389380  )
       154        Ga     tau( 154) = (   0.6659450   0.1660800   0.4991720  )
       155        Ga     tau( 155) = (   0.8292700   0.0048940   0.5018960  )
       156        Ga     tau( 156) = (   0.8213310   0.1671020   0.3340380  )
       157        As     tau( 157) = (   0.7466330   0.0838220   0.4190360  )
       158        As     tau( 158) = (   0.7492840   0.2463360   0.5827110  )
       159        As     tau( 159) = (   0.9105580   0.0812810   0.5851530  )
       160        Sb     tau( 160) = (   0.9117300   0.2508380   0.4186470  )
       161        Ga     tau( 161) = (   0.6707200   0.0038500   0.6602390  )
       162        Ga     tau( 162) = (   0.6731820   0.1606360   0.8271230  )
       163        Ga     tau( 163) = (   0.8371200   0.0051010   0.8260530  )
       164        Ga     tau( 164) = (   0.8292610   0.1644540   0.6631390  )
       165        As     tau( 165) = (   0.7526200   0.0817840   0.7443290  )
       166        Sb     tau( 166) = (   0.7505820   0.2499890   0.9181150  )
       167        As     tau( 167) = (   0.9180270   0.0837690   0.9131480  )
       168        Sb     tau( 168) = (   0.9163220   0.2504030   0.7503660  )
       169        Ga     tau( 169) = (   0.6626770   0.3356210   0.0042670  )
       170        Ga     tau( 170) = (   0.6700140   0.4892180   0.1687990  )
       171        Ga     tau( 171) = (   0.8279180   0.3286130   0.1624670  )
       172        Ga     tau( 172) = (   0.8329570   0.4971420   0.0000310  )
       173        As     tau( 173) = (   0.7502700   0.4135270   0.0823830  )
       174        Sb     tau( 174) = (   0.7491670   0.5846170   0.2529070  )
       175        Sb     tau( 175) = (   0.9143600   0.4170280   0.2483090  )
       176        As     tau( 176) = (   0.9149820   0.5815440   0.0767420  )
       177        Ga     tau( 177) = (   0.6630610   0.3287500   0.3304690  )
       178        Ga     tau( 178) = (   0.6689610   0.5092070   0.4985020  )
       179        Ga     tau( 179) = (   0.8320950   0.3344920   0.5111750  )
       180        Ga     tau( 180) = (   0.8381330   0.5051080   0.3406850  )
       181        Sb     tau( 181) = (   0.7492440   0.4157000   0.4184250  )
       182        As     tau( 182) = (   0.7539510   0.5852300   0.5800220  )
       183        As     tau( 183) = (   0.9160210   0.4216100   0.5847790  )
       184        As     tau( 184) = (   0.9165440   0.5856880   0.4238590  )
       185        Ga     tau( 185) = (   0.6711180   0.3288950   0.6631170  )
       186        Ga     tau( 186) = (   0.6668390   0.4978860   0.8416620  )
       187        Ga     tau( 187) = (   0.8375800   0.3393660   0.8380500  )
       188        Ga     tau( 188) = (   0.8366430   0.5063440   0.6625570  )
       189        Sb     tau( 189) = (   0.7519850   0.4191230   0.7489380  )
       190        As     tau( 190) = (   0.7545570   0.5790970   0.9166320  )
       191        As     tau( 191) = (   0.9171370   0.4195970   0.9177140  )
       192        As     tau( 192) = (   0.9172390   0.5821070   0.7491750  )
       193        Ga     tau( 193) = (   0.6728050   0.6594230  -0.0035560  )
       194        Ga     tau( 194) = (   0.6656470   0.8334040   0.1763320  )
       195        Ga     tau( 195) = (   0.8393400   0.6611880   0.1620030  )
       196        Ga     tau( 196) = (   0.8394530   0.8268980  -0.0055210  )
       197        Sb     tau( 197) = (   0.7507960   0.7496100   0.0842780  )
       198        As     tau( 198) = (   0.7456290   0.9146260   0.2558030  )
       199        Sb     tau( 199) = (   0.9169650   0.7495340   0.2535200  )
       200        Sb     tau( 200) = (   0.9178840   0.9174000   0.0818240  )
       201        Ga     tau( 201) = (   0.6630490   0.6734590   0.3395390  )
       202        Ga     tau( 202) = (   0.6709260   0.8384530   0.4964990  )
       203        Ga     tau( 203) = (   0.8318670   0.6694170   0.5005600  )
       204        Ga     tau( 204) = (   0.8233010   0.8308550   0.3343520  )
       205        As     tau( 205) = (   0.7481690   0.7508340   0.4191510  )
       206        As     tau( 206) = (   0.7513130   0.9194000   0.5808870  )
       207        As     tau( 207) = (   0.9140180   0.7484960   0.5823260  )
       208        Sb     tau( 208) = (   0.9138300   0.9144510   0.4175490  )
       209        Ga     tau( 209) = (   0.6740200   0.6630690   0.6619270  )
       210        Ga     tau( 210) = (   0.6668690   0.8332830   0.8294170  )
       211        Ga     tau( 211) = (   0.8390450   0.6602830   0.8350340  )
       212        Ga     tau( 212) = (   0.8375520   0.8384390   0.6611300  )
       213        Sb     tau( 213) = (   0.7566620   0.7489440   0.7478220  )
       214        Sb     tau( 214) = (   0.7541520   0.9180990   0.9136130  )
       215        As     tau( 215) = (   0.9182920   0.7462420   0.9132140  )
       216        As     tau( 216) = (   0.9144840   0.9173870   0.7495650  )

     number of k points=     8
                       cart. coord. in units 2pi/alat
        k(    1) = (   0.0000000   0.0000000   0.0000000), wk =   0.2500000
        k(    2) = (   0.0000000   0.0000000  -0.5000000), wk =   0.2500000
        k(    3) = (   0.0000000  -0.5000000  -0.5000000), wk =   0.2500000
        k(    4) = (  -0.5000000  -0.5000000  -0.5000000), wk =   0.2500000
        k(    5) = (  -0.5000000   0.0000000   0.0000000), wk =   0.2500000
        k(    6) = (   0.0000000  -0.5000000   0.0000000), wk =   0.2500000
        k(    7) = (  -0.5000000   0.0000000   0.5000000), wk =   0.2500000
        k(    8) = (  -0.5000000   0.5000000   0.0000000), wk =   0.2500000

     Dense  grid:  6652641 G-vectors     FFT dimensions: ( 240, 240, 240)

     Estimated max dynamical RAM per process >       2.57 GB

     Estimated total dynamical RAM >    1635.83 GB

     Initial potential from superposition of free atoms

     starting charge    3023.6679, renormalised to    3024.0000

     STARTING HUBBARD OCCUPATIONS:

     =================== HUBBARD OCCUPATIONS ===================
     ------------------------ ATOM    1 ------------------------
     Tr[ns(  1)] =   1.00000
     eigenvalues:
       0.167  0.167  0.167
     eigenvectors (columns):
       1.000  0.000  0.000
       0.000  1.000  0.000
       0.000  0.000  1.000
     occupation matrix ns (before diag.):
       0.167  0.000  0.000
       0.000  0.167  0.000
       0.000  0.000  0.167
     ------------------------ ATOM    2 ------------------------
     Tr[ns(  2)] =   1.00000
     eigenvalues:
       0.167  0.167  0.167
     eigenvectors (columns):
       1.000  0.000  0.000
       0.000  1.000  0.000
       0.000  0.000  1.000
     occupation matrix ns (before diag.):
       0.167  0.000  0.000
       0.000  0.167  0.000
       0.000  0.000  0.167
     ------------------------ ATOM    3 ------------------------
     Tr[ns(  3)] =   1.00000
     eigenvalues:
       0.167  0.167  0.167
     eigenvectors (columns):
       1.000  0.000  0.000
       0.000  1.000  0.000
       0.000  0.000  1.000
     occupation matrix ns (before diag.):
       0.167  0.000  0.000
       0.000  0.167  0.000
       0.000  0.000  0.167
     ------------------------ ATOM    4 ------------------------
     Tr[ns(  4)] =   1.00000
     eigenvalues:
       0.167  0.167  0.167
     eigenvectors (columns):
       1.000  0.000  0.000
       0.000  1.000  0.000
       0.000  0.000  1.000
     occupation matrix ns (before diag.):
       0.167  0.000  0.000
       0.000  0.167  0.000
       0.000  0.000  0.167
     ------------------------ ATOM    5 ------------------------
     Tr[ns(  5)] =   3.00000
     eigenvalues:
       0.500  0.500  0.500
     eigenvectors (columns):
       1.000  0.000  0.000
       0.000  1.000  0.000
       0.000  0.000  1.000
     occupation matrix ns (before diag.):
       0.500  0.000  0.000
       0.000  0.500  0.000
       0.000  0.000  0.500
     ------------------------ ATOM    6 ------------------------
     Tr[ns(  6)] =   3.00000
     eigenvalues:
       0.500  0.500  0.500
     eigenvectors (columns):
       1.000  0.000  0.000
       0.000  1.000  0.000
       0.000  0.000  1.000
     occupation matrix ns (before diag.):
       0.500  0.000  0.000
       0.000  0.500  0.000
       0.000  0.000  0.500
     ------------------------ ATOM    7 ------------------------
     Tr[ns(  7)] =   3.00000
     eigenvalues:
       0.500  0.500  0.500
     eigenvectors (columns):
       1.000  0.000  0.000
       0.000  1.000  0.000
       0.000  0.000  1.000
     occupation matrix ns (before diag.):
       0.500  0.000  0.000
       0.000  0.500  0.000
       0.000  0.000  0.500
     ------------------------ ATOM    8 ------------------------
     Tr[ns(  8)] =   3.00000
     eigenvalues:
       0.500  0.500  0.500
     eigenvectors (columns):
       1.000  0.000  0.000
       0.000  1.000  0.000
       0.000  0.000  1.000
     occupation matrix ns (before diag.):
       0.500  0.000  0.000
       0.000  0.500  0.000
       0.000  0.000  0.500
     ------------------------ ATOM    9 ------------------------
     Tr[ns(  9)] =   1.00000
     eigenvalues:
       0.167  0.167  0.167
     eigenvectors (columns):
       1.000  0.000  0.000
       0.000  1.000  0.000
       0.000  0.000  1.000
     occupation matrix ns (before diag.):
       0.167  0.000  0.000
       0.000  0.167  0.000
       0.000  0.000  0.167
     ------------------------ ATOM   10 ------------------------
     Tr[ns( 10)] =   1.00000
     eigenvalues:
       0.167  0.167  0.167
     eigenvectors (columns):
       1.000  0.000  0.000
       0.000  1.000  0.000
       0.000  0.000  1.000
     occupation matrix ns (before diag.):
       0.167  0.000  0.000
       0.000  0.167  0.000
       0.000  0.000  0.167
     ------------------------ ATOM   11 ------------------------
     Tr[ns( 11)] =   1.00000
     eigenvalues:
       0.167  0.167  0.167
     eigenvectors (columns):
       1.000  0.000  0.000
       0.000  1.000  0.000
       0.000  0.000  1.000
     occupation matrix ns (before diag.):
       0.167  0.000  0.000
       0.000  0.167  0.000
       0.000  0.000  0.167
     ------------------------ ATOM   12 ------------------------
     Tr[ns( 12)] =   1.00000
     eigenvalues:
       0.167  0.167  0.167
     eigenvectors (columns):
       1.000  0.000  0.000
       0.000  1.000  0.000
       0.000  0.000  1.000
     occupation matrix ns (before diag.):
       0.167  0.000  0.000
       0.000  0.167  0.000
       0.000  0.000  0.167
     ------------------------ ATOM   13 ------------------------
     Tr[ns( 13)] =   3.00000
     eigenvalues:
       0.500  0.500  0.500
     eigenvectors (columns):
       1.000  0.000  0.000
       0.000  1.000  0.000
       0.000  0.000  1.000
     occupation matrix ns (before diag.):
       0.500  0.000  0.000
       0.000  0.500  0.000
       0.000  0.000  0.500
     ------------------------ ATOM   14 ------------------------
     Tr[ns( 14)] =   3.00000
     eigenvalues:
       0.500  0.500  0.500
     eigenvectors (columns):
       1.000  0.000  0.000
       0.000  1.000  0.000
       0.000  0.000  1.000
     occupation matrix ns (before diag.):
       0.500  0.000  0.000
       0.000  0.500  0.000
       0.000  0.000  0.500
     ------------------------ ATOM   15 ------------------------
     Tr[ns( 15)] =   3.00000
     eigenvalues:
       0.500  0.500  0.500
     eigenvectors (columns):
       1.000  0.000  0.000
       0.000  1.000  0.000
       0.000  0.000  1.000
     occupation matrix ns (before diag.):
       0.500  0.000  0.000
       0.000  0.500  0.000
       0.000  0.000  0.500
     ------------------------ ATOM   16 ------------------------
     Tr[ns( 16)] =   3.00000
     eigenvalues:
       0.500  0.500  0.500
     eigenvectors (columns):
       1.000  0.000  0.000
       0.000  1.000  0.000
       0.000  0.000  1.000
     occupation matrix ns (before diag.):
       0.500  0.000  0.000
       0.000  0.500  0.000
       0.000  0.000  0.500
     ------------------------ ATOM   17 ------------------------
     Tr[ns( 17)] =   1.00000
     eigenvalues:
       0.167  0.167  0.167
     eigenvectors (columns):
       1.000  0.000  0.000
       0.000  1.000  0.000
       0.000  0.000  1.000
     occupation matrix ns (before diag.):
       0.167  0.000  0.000
       0.000  0.167  0.000
       0.000  0.000  0.167
     ------------------------ ATOM   18 ------------------------
     Tr[ns( 18)] =   1.00000
     eigenvalues:
       0.167  0.167  0.167
     eigenvectors (columns):
       1.000  0.000  0.000
       0.000  1.000  0.000
       0.000  0.000  1.000
     occupation matrix ns (before diag.):
       0.167  0.000  0.000
       0.000  0.167  0.000
       0.000  0.000  0.167
     ------------------------ ATOM   19 ------------------------
     Tr[ns( 19)] =   1.00000
     eigenvalues:
       0.167  0.167  0.167
     eigenvectors (columns):
       1.000  0.000  0.000
       0.000  1.000  0.000
       0.000  0.000  1.000
     occupation matrix ns (before diag.):
       0.167  0.000  0.000
       0.000  0.167  0.000
       0.000  0.000  0.167
     ------------------------ ATOM   20 ------------------------
     Tr[ns( 20)] =   1.00000
     eigenvalues:
       0.167  0.167  0.167
     eigenvectors (columns):
       1.000  0.000  0.000
       0.000  1.000  0.000
       0.000  0.000  1.000
     occupation matrix ns (before diag.):
       0.167  0.000  0.000
       0.000  0.167  0.000
       0.000  0.000  0.167
     ------------------------ ATOM   21 ------------------------
     Tr[ns( 21)] =   3.00000
     eigenvalues:
       0.500  0.500  0.500
     eigenvectors (columns):
       1.000  0.000  0.000
       0.000  1.000  0.000
       0.000  0.000  1.000
     occupation matrix ns (before diag.):
       0.500  0.000  0.000
       0.000  0.500  0.000
       0.000  0.000  0.500
     ------------------------ ATOM   22 ------------------------
     Tr[ns( 22)] =   3.00000
     eigenvalues:
       0.500  0.500  0.500
     eigenvectors (columns):
       1.000  0.000  0.000
       0.000  1.000  0.000
       0.000  0.000  1.000
     occupation matrix ns (before diag.):
       0.500  0.000  0.000
       0.000  0.500  0.000
       0.000  0.000  0.500
     ------------------------ ATOM   23 ------------------------
     Tr[ns( 23)] =   3.00000
     eigenvalues:
       0.500  0.500  0.500
     eigenvectors (columns):
       1.000  0.000  0.000
       0.000  1.000  0.000
       0.000  0.000  1.000
     occupation matrix ns (before diag.):
       0.500  0.000  0.000
       0.000  0.500  0.000
       0.000  0.000  0.500
     ------------------------ ATOM   24 ------------------------
     Tr[ns( 24)] =   3.00000
     eigenvalues:
       0.500  0.500  0.500
     eigenvectors (columns):
       1.000  0.000  0.000
       0.000  1.000  0.000
       0.000  0.000  1.000
     occupation matrix ns (before diag.):
       0.500  0.000  0.000
       0.000  0.500  0.000
       0.000  0.000  0.500
     ------------------------ ATOM   25 ------------------------
     Tr[ns( 25)] =   1.00000
     eigenvalues:
       0.167  0.167  0.167
     eigenvectors (columns):
       1.000  0.000  0.000
       0.000  1.000  0.000
       0.000  0.000  1.000
     occupation matrix ns (before diag.):
       0.167  0.000  0.000
       0.000  0.167  0.000
       0.000  0.000  0.167
     ------------------------ ATOM   26 ------------------------
     Tr[ns( 26)] =   1.00000
     eigenvalues:
       0.167  0.167  0.167
     eigenvectors (columns):
       1.000  0.000  0.000
       0.000  1.000  0.000
       0.000  0.000  1.000
     occupation matrix ns (before diag.):
       0.167  0.000  0.000
       0.000  0.167  0.000
       0.000  0.000  0.167
     ------------------------ ATOM   27 ------------------------
     Tr[ns( 27)] =   1.00000
     eigenvalues:
       0.167  0.167  0.167
     eigenvectors (columns):
       1.000  0.000  0.000
       0.000  1.000  0.000
       0.000  0.000  1.000
     occupation matrix ns (before diag.):
       0.167  0.000  0.000
       0.000  0.167  0.000
       0.000  0.000  0.167
     ------------------------ ATOM   28 ------------------------
     Tr[ns( 28)] =   1.00000
     eigenvalues:
       0.167  0.167  0.167
     eigenvectors (columns):
       1.000  0.000  0.000
       0.000  1.000  0.000
       0.000  0.000  1.000
     occupation matrix ns (before diag.):
       0.167  0.000  0.000
       0.000  0.167  0.000
       0.000  0.000  0.167
     ------------------------ ATOM   29 ------------------------
     Tr[ns( 29)] =   3.00000
     eigenvalues:
       0.500  0.500  0.500
     eigenvectors (columns):
       1.000  0.000  0.000
       0.000  1.000  0.000
       0.000  0.000  1.000
     occupation matrix ns (before diag.):
       0.500  0.000  0.000
       0.000  0.500  0.000
       0.000  0.000  0.500
     ------------------------ ATOM   30 ------------------------
     Tr[ns( 30)] =   3.00000
     eigenvalues:
       0.500  0.500  0.500
     eigenvectors (columns):
       1.000  0.000  0.000
       0.000  1.000  0.000
       0.000  0.000  1.000
     occupation matrix ns (before diag.):
       0.500  0.000  0.000
       0.000  0.500  0.000
       0.000  0.000  0.500
     ------------------------ ATOM   31 ------------------------
     Tr[ns( 31)] =   3.00000
     eigenvalues:
       0.500  0.500  0.500
     eigenvectors (columns):
       1.000  0.000  0.000
       0.000  1.000  0.000
       0.000  0.000  1.000
     occupation matrix ns (before diag.):
       0.500  0.000  0.000
       0.000  0.500  0.000
       0.000  0.000  0.500
     ------------------------ ATOM   32 ------------------------
     Tr[ns( 32)] =   3.00000
     eigenvalues:
       0.500  0.500  0.500
     eigenvectors (columns):
       1.000  0.000  0.000
       0.000  1.000  0.000
       0.000  0.000  1.000
     occupation matrix ns (before diag.):
       0.500  0.000  0.000
       0.000  0.500  0.000
       0.000  0.000  0.500
     ------------------------ ATOM   33 ------------------------
     Tr[ns( 33)] =   1.00000
     eigenvalues:
       0.167  0.167  0.167
     eigenvectors (columns):
       1.000  0.000  0.000
       0.000  1.000  0.000
       0.000  0.000  1.000
     occupation matrix ns (before diag.):
       0.167  0.000  0.000
       0.000  0.167  0.000
       0.000  0.000  0.167
     ------------------------ ATOM   34 ------------------------
     Tr[ns( 34)] =   1.00000
     eigenvalues:
       0.167  0.167  0.167
     eigenvectors (columns):
       1.000  0.000  0.000
       0.000  1.000  0.000
       0.000  0.000  1.000
     occupation matrix ns (before diag.):
       0.167  0.000  0.000
       0.000  0.167  0.000
       0.000  0.000  0.167
     ------------------------ ATOM   35 ------------------------
     Tr[ns( 35)] =   1.00000
     eigenvalues:
       0.167  0.167  0.167
     eigenvectors (columns):
       1.000  0.000  0.000
       0.000  1.000  0.000
       0.000  0.000  1.000
     occupation matrix ns (before diag.):
       0.167  0.000  0.000
       0.000  0.167  0.000
       0.000  0.000  0.167
     ------------------------ ATOM   36 ------------------------
     Tr[ns( 36)] =   1.00000
     eigenvalues:
       0.167  0.167  0.167
     eigenvectors (columns):
       1.000  0.000  0.000
       0.000  1.000  0.000
       0.000  0.000  1.000
     occupation matrix ns (before diag.):
       0.167  0.000  0.000
       0.000  0.167  0.000
       0.000  0.000  0.167
     ------------------------ ATOM   37 ------------------------
     Tr[ns( 37)] =   3.00000
     eigenvalues:
       0.500  0.500  0.500
     eigenvectors (columns):
       1.000  0.000  0.000
       0.000  1.000  0.000
       0.000  0.000  1.000
     occupation matrix ns (before diag.):
       0.500  0.000  0.000
       0.000  0.500  0.000
       0.000  0.000  0.500
     ------------------------ ATOM   38 ------------------------
     Tr[ns( 38)] =   3.00000
     eigenvalues:
       0.500  0.500  0.500
     eigenvectors (columns):
       1.000  0.000  0.000
       0.000  1.000  0.000
       0.000  0.000  1.000
     occupation matrix ns (before diag.):
       0.500  0.000  0.000
       0.000  0.500  0.000
       0.000  0.000  0.500
     ------------------------ ATOM   39 ------------------------
     Tr[ns( 39)] =   3.00000
     eigenvalues:
       0.500  0.500  0.500
     eigenvectors (columns):
       1.000  0.000  0.000
       0.000  1.000  0.000
       0.000  0.000  1.000
     occupation matrix ns (before diag.):
       0.500  0.000  0.000
       0.000  0.500  0.000
       0.000  0.000  0.500
     ------------------------ ATOM   40 ------------------------
     Tr[ns( 40)] =   3.00000
     eigenvalues:
       0.500  0.500  0.500
     eigenvectors (columns):
       1.000  0.000  0.000
       0.000  1.000  0.000
       0.000  0.000  1.000
     occupation matrix ns (before diag.):
       0.500  0.000  0.000
       0.000  0.500  0.000
       0.000  0.000  0.500
     ------------------------ ATOM   41 ------------------------
     Tr[ns( 41)] =   1.00000
     eigenvalues:
       0.167  0.167  0.167
     eigenvectors (columns):
       1.000  0.000  0.000
       0.000  1.000  0.000
       0.000  0.000  1.000
     occupation matrix ns (before diag.):
       0.167  0.000  0.000
       0.000  0.167  0.000
       0.000  0.000  0.167
     ------------------------ ATOM   42 ------------------------
     Tr[ns( 42)] =   1.00000
     eigenvalues:
       0.167  0.167  0.167
     eigenvectors (columns):
       1.000  0.000  0.000
       0.000  1.000  0.000
       0.000  0.000  1.000
     occupation matrix ns (before diag.):
       0.167  0.000  0.000
       0.000  0.167  0.000
       0.000  0.000  0.167
     ------------------------ ATOM   43 ------------------------
     Tr[ns( 43)] =   1.00000
     eigenvalues:
       0.167  0.167  0.167
     eigenvectors (columns):
       1.000  0.000  0.000
       0.000  1.000  0.000
       0.000  0.000  1.000
     occupation matrix ns (before diag.):
       0.167  0.000  0.000
       0.000  0.167  0.000
       0.000  0.000  0.167
     ------------------------ ATOM   44 ------------------------
     Tr[ns( 44)] =   1.00000
     eigenvalues:
       0.167  0.167  0.167
     eigenvectors (columns):
       1.000  0.000  0.000
       0.000  1.000  0.000
       0.000  0.000  1.000
     occupation matrix ns (before diag.):
       0.167  0.000  0.000
       0.000  0.167  0.000
       0.000  0.000  0.167
     ------------------------ ATOM   45 ------------------------
     Tr[ns( 45)] =   3.00000
     eigenvalues:
       0.500  0.500  0.500
     eigenvectors (columns):
       1.000  0.000  0.000
       0.000  1.000  0.000
       0.000  0.000  1.000
     occupation matrix ns (before diag.):
       0.500  0.000  0.000
       0.000  0.500  0.000
       0.000  0.000  0.500
     ------------------------ ATOM   46 ------------------------
     Tr[ns( 46)] =   3.00000
     eigenvalues:
       0.500  0.500  0.500
     eigenvectors (columns):
       1.000  0.000  0.000
       0.000  1.000  0.000
       0.000  0.000  1.000
     occupation matrix ns (before diag.):
       0.500  0.000  0.000
       0.000  0.500  0.000
       0.000  0.000  0.500
     ------------------------ ATOM   47 ------------------------
     Tr[ns( 47)] =   3.00000
     eigenvalues:
       0.500  0.500  0.500
     eigenvectors (columns):
       1.000  0.000  0.000
       0.000  1.000  0.000
       0.000  0.000  1.000
     occupation matrix ns (before diag.):
       0.500  0.000  0.000
       0.000  0.500  0.000
       0.000  0.000  0.500
     ------------------------ ATOM   48 ------------------------
     Tr[ns( 48)] =   3.00000
     eigenvalues:
       0.500  0.500  0.500
     eigenvectors (columns):
       1.000  0.000  0.000
       0.000  1.000  0.000
       0.000  0.000  1.000
     occupation matrix ns (before diag.):
       0.500  0.000  0.000
       0.000  0.500  0.000
       0.000  0.000  0.500
     ------------------------ ATOM   49 ------------------------
     Tr[ns( 49)] =   1.00000
     eigenvalues:
       0.167  0.167  0.167
     eigenvectors (columns):
       1.000  0.000  0.000
       0.000  1.000  0.000
       0.000  0.000  1.000
     occupation matrix ns (before diag.):
       0.167  0.000  0.000
       0.000  0.167  0.000
       0.000  0.000  0.167
     ------------------------ ATOM   50 ------------------------
     Tr[ns( 50)] =   1.00000
     eigenvalues:
       0.167  0.167  0.167
     eigenvectors (columns):
       1.000  0.000  0.000
       0.000  1.000  0.000
       0.000  0.000  1.000
     occupation matrix ns (before diag.):
       0.167  0.000  0.000
       0.000  0.167  0.000
       0.000  0.000  0.167
     ------------------------ ATOM   51 ------------------------
     Tr[ns( 51)] =   1.00000
     eigenvalues:
       0.167  0.167  0.167
     eigenvectors (columns):
       1.000  0.000  0.000
       0.000  1.000  0.000
       0.000  0.000  1.000
     occupation matrix ns (before diag.):
       0.167  0.000  0.000
       0.000  0.167  0.000
       0.000  0.000  0.167
     ------------------------ ATOM   52 ------------------------
     Tr[ns( 52)] =   1.00000
     eigenvalues:
       0.167  0.167  0.167
     eigenvectors (columns):
       1.000  0.000  0.000
       0.000  1.000  0.000
       0.000  0.000  1.000
     occupation matrix ns (before diag.):
       0.167  0.000  0.000
       0.000  0.167  0.000
       0.000  0.000  0.167
     ------------------------ ATOM   53 ------------------------
     Tr[ns( 53)] =   3.00000
     eigenvalues:
       0.500  0.500  0.500
     eigenvectors (columns):
       1.000  0.000  0.000
       0.000  1.000  0.000
       0.000  0.000  1.000
     occupation matrix ns (before diag.):
       0.500  0.000  0.000
       0.000  0.500  0.000
       0.000  0.000  0.500
     ------------------------ ATOM   54 ------------------------
     Tr[ns( 54)] =   3.00000
     eigenvalues:
       0.500  0.500  0.500
     eigenvectors (columns):
       1.000  0.000  0.000
       0.000  1.000  0.000
       0.000  0.000  1.000
     occupation matrix ns (before diag.):
       0.500  0.000  0.000
       0.000  0.500  0.000
       0.000  0.000  0.500
     ------------------------ ATOM   55 ------------------------
     Tr[ns( 55)] =   3.00000
     eigenvalues:
       0.500  0.500  0.500
     eigenvectors (columns):
       1.000  0.000  0.000
       0.000  1.000  0.000
       0.000  0.000  1.000
     occupation matrix ns (before diag.):
       0.500  0.000  0.000
       0.000  0.500  0.000
       0.000  0.000  0.500
     ------------------------ ATOM   56 ------------------------
     Tr[ns( 56)] =   3.00000
     eigenvalues:
       0.500  0.500  0.500
     eigenvectors (columns):
       1.000  0.000  0.000
       0.000  1.000  0.000
       0.000  0.000  1.000
     occupation matrix ns (before diag.):
       0.500  0.000  0.000
       0.000  0.500  0.000
       0.000  0.000  0.500
     ------------------------ ATOM   57 ------------------------
     Tr[ns( 57)] =   1.00000
     eigenvalues:
       0.167  0.167  0.167
     eigenvectors (columns):
       1.000  0.000  0.000
       0.000  1.000  0.000
       0.000  0.000  1.000
     occupation matrix ns (before diag.):
       0.167  0.000  0.000
       0.000  0.167  0.000
       0.000  0.000  0.167
     ------------------------ ATOM   58 ------------------------
     Tr[ns( 58)] =   1.00000
     eigenvalues:
       0.167  0.167  0.167
     eigenvectors (columns):
       1.000  0.000  0.000
       0.000  1.000  0.000
       0.000  0.000  1.000
     occupation matrix ns (before diag.):
       0.167  0.000  0.000
       0.000  0.167  0.000
       0.000  0.000  0.167
     ------------------------ ATOM   59 ------------------------
     Tr[ns( 59)] =   1.00000
     eigenvalues:
       0.167  0.167  0.167
     eigenvectors (columns):
       1.000  0.000  0.000
       0.000  1.000  0.000
       0.000  0.000  1.000
     occupation matrix ns (before diag.):
       0.167  0.000  0.000
       0.000  0.167  0.000
       0.000  0.000  0.167
     ------------------------ ATOM   60 ------------------------
     Tr[ns( 60)] =   1.00000
     eigenvalues:
       0.167  0.167  0.167
     eigenvectors (columns):
       1.000  0.000  0.000
       0.000  1.000  0.000
       0.000  0.000  1.000
     occupation matrix ns (before diag.):
       0.167  0.000  0.000
       0.000  0.167  0.000
       0.000  0.000  0.167
     ------------------------ ATOM   61 ------------------------
     Tr[ns( 61)] =   3.00000
     eigenvalues:
       0.500  0.500  0.500
     eigenvectors (columns):
       1.000  0.000  0.000
       0.000  1.000  0.000
       0.000  0.000  1.000
     occupation matrix ns (before diag.):
       0.500  0.000  0.000
       0.000  0.500  0.000
       0.000  0.000  0.500
     ------------------------ ATOM   62 ------------------------
     Tr[ns( 62)] =   3.00000
     eigenvalues:
       0.500  0.500  0.500
     eigenvectors (columns):
       1.000  0.000  0.000
       0.000  1.000  0.000
       0.000  0.000  1.000
     occupation matrix ns (before diag.):
       0.500  0.000  0.000
       0.000  0.500  0.000
       0.000  0.000  0.500
     ------------------------ ATOM   63 ------------------------
     Tr[ns( 63)] =   3.00000
     eigenvalues:
       0.500  0.500  0.500
     eigenvectors (columns):
       1.000  0.000  0.000
       0.000  1.000  0.000
       0.000  0.000  1.000
     occupation matrix ns (before diag.):
       0.500  0.000  0.000
       0.000  0.500  0.000
       0.000  0.000  0.500
     ------------------------ ATOM   64 ------------------------
     Tr[ns( 64)] =   3.00000
     eigenvalues:
       0.500  0.500  0.500
     eigenvectors (columns):
       1.000  0.000  0.000
       0.000  1.000  0.000
       0.000  0.000  1.000
     occupation matrix ns (before diag.):
       0.500  0.000  0.000
       0.000  0.500  0.000
       0.000  0.000  0.500
     ------------------------ ATOM   65 ------------------------
     Tr[ns( 65)] =   1.00000
     eigenvalues:
       0.167  0.167  0.167
     eigenvectors (columns):
       1.000  0.000  0.000
       0.000  1.000  0.000
       0.000  0.000  1.000
     occupation matrix ns (before diag.):
       0.167  0.000  0.000
       0.000  0.167  0.000
       0.000  0.000  0.167
     ------------------------ ATOM   66 ------------------------
     Tr[ns( 66)] =   1.00000
     eigenvalues:
       0.167  0.167  0.167
     eigenvectors (columns):
       1.000  0.000  0.000
       0.000  1.000  0.000
       0.000  0.000  1.000
     occupation matrix ns (before diag.):
       0.167  0.000  0.000
       0.000  0.167  0.000
       0.000  0.000  0.167
     ------------------------ ATOM   67 ------------------------
     Tr[ns( 67)] =   1.00000
     eigenvalues:
       0.167  0.167  0.167
     eigenvectors (columns):
       1.000  0.000  0.000
       0.000  1.000  0.000
       0.000  0.000  1.000
     occupation matrix ns (before diag.):
       0.167  0.000  0.000
       0.000  0.167  0.000
       0.000  0.000  0.167
     ------------------------ ATOM   68 ------------------------
     Tr[ns( 68)] =   1.00000
     eigenvalues:
       0.167  0.167  0.167
     eigenvectors (columns):
       1.000  0.000  0.000
       0.000  1.000  0.000
       0.000  0.000  1.000
     occupation matrix ns (before diag.):
       0.167  0.000  0.000
       0.000  0.167  0.000
       0.000  0.000  0.167
     ------------------------ ATOM   69 ------------------------
     Tr[ns( 69)] =   3.00000
     eigenvalues:
       0.500  0.500  0.500
     eigenvectors (columns):
       1.000  0.000  0.000
       0.000  1.000  0.000
       0.000  0.000  1.000
     occupation matrix ns (before diag.):
       0.500  0.000  0.000
       0.000  0.500  0.000
       0.000  0.000  0.500
     ------------------------ ATOM   70 ------------------------
     Tr[ns( 70)] =   3.00000
     eigenvalues:
       0.500  0.500  0.500
     eigenvectors (columns):
       1.000  0.000  0.000
       0.000  1.000  0.000
       0.000  0.000  1.000
     occupation matrix ns (before diag.):
       0.500  0.000  0.000
       0.000  0.500  0.000
       0.000  0.000  0.500
     ------------------------ ATOM   71 ------------------------
     Tr[ns( 71)] =   3.00000
     eigenvalues:
       0.500  0.500  0.500
     eigenvectors (columns):
       1.000  0.000  0.000
       0.000  1.000  0.000
       0.000  0.000  1.000
     occupation matrix ns (before diag.):
       0.500  0.000  0.000
       0.000  0.500  0.000
       0.000  0.000  0.500
     ------------------------ ATOM   72 ------------------------
     Tr[ns( 72)] =   3.00000
     eigenvalues:
       0.500  0.500  0.500
     eigenvectors (columns):
       1.000  0.000  0.000
       0.000  1.000  0.000
       0.000  0.000  1.000
     occupation matrix ns (before diag.):
       0.500  0.000  0.000
       0.000  0.500  0.000
       0.000  0.000  0.500
     ------------------------ ATOM   73 ------------------------
     Tr[ns( 73)] =   1.00000
     eigenvalues:
       0.167  0.167  0.167
     eigenvectors (columns):
       1.000  0.000  0.000
       0.000  1.000  0.000
       0.000  0.000  1.000
     occupation matrix ns (before diag.):
       0.167  0.000  0.000
       0.000  0.167  0.000
       0.000  0.000  0.167
     ------------------------ ATOM   74 ------------------------
     Tr[ns( 74)] =   1.00000
     eigenvalues:
       0.167  0.167  0.167
     eigenvectors (columns):
       1.000  0.000  0.000
       0.000  1.000  0.000
       0.000  0.000  1.000
     occupation matrix ns (before diag.):
       0.167  0.000  0.000
       0.000  0.167  0.000
       0.000  0.000  0.167
     ------------------------ ATOM   75 ------------------------
     Tr[ns( 75)] =   1.00000
     eigenvalues:
       0.167  0.167  0.167
     eigenvectors (columns):
       1.000  0.000  0.000
       0.000  1.000  0.000
       0.000  0.000  1.000
     occupation matrix ns (before diag.):
       0.167  0.000  0.000
       0.000  0.167  0.000
       0.000  0.000  0.167
     ------------------------ ATOM   76 ------------------------
     Tr[ns( 76)] =   1.00000
     eigenvalues:
       0.167  0.167  0.167
     eigenvectors (columns):
       1.000  0.000  0.000
       0.000  1.000  0.000
       0.000  0.000  1.000
     occupation matrix ns (before diag.):
       0.167  0.000  0.000
       0.000  0.167  0.000
       0.000  0.000  0.167
     ------------------------ ATOM   77 ------------------------
     Tr[ns( 77)] =   3.00000
     eigenvalues:
       0.500  0.500  0.500
     eigenvectors (columns):
       1.000  0.000  0.000
       0.000  1.000  0.000
       0.000  0.000  1.000
     occupation matrix ns (before diag.):
       0.500  0.000  0.000
       0.000  0.500  0.000
       0.000  0.000  0.500
     ------------------------ ATOM   78 ------------------------
     Tr[ns( 78)] =   3.00000
     eigenvalues:
       0.500  0.500  0.500
     eigenvectors (columns):
       1.000  0.000  0.000
       0.000  1.000  0.000
       0.000  0.000  1.000
     occupation matrix ns (before diag.):
       0.500  0.000  0.000
       0.000  0.500  0.000
       0.000  0.000  0.500
     ------------------------ ATOM   79 ------------------------
     Tr[ns( 79)] =   3.00000
     eigenvalues:
       0.500  0.500  0.500
     eigenvectors (columns):
       1.000  0.000  0.000
       0.000  1.000  0.000
       0.000  0.000  1.000
     occupation matrix ns (before diag.):
       0.500  0.000  0.000
       0.000  0.500  0.000
       0.000  0.000  0.500
     ------------------------ ATOM   80 ------------------------
     Tr[ns( 80)] =   3.00000
     eigenvalues:
       0.500  0.500  0.500
     eigenvectors (columns):
       1.000  0.000  0.000
       0.000  1.000  0.000
       0.000  0.000  1.000
     occupation matrix ns (before diag.):
       0.500  0.000  0.000
       0.000  0.500  0.000
       0.000  0.000  0.500
     ------------------------ ATOM   81 ------------------------
     Tr[ns( 81)] =   1.00000
     eigenvalues:
       0.167  0.167  0.167
     eigenvectors (columns):
       1.000  0.000  0.000
       0.000  1.000  0.000
       0.000  0.000  1.000
     occupation matrix ns (before diag.):
       0.167  0.000  0.000
       0.000  0.167  0.000
       0.000  0.000  0.167
     ------------------------ ATOM   82 ------------------------
     Tr[ns( 82)] =   1.00000
     eigenvalues:
       0.167  0.167  0.167
     eigenvectors (columns):
       1.000  0.000  0.000
       0.000  1.000  0.000
       0.000  0.000  1.000
     occupation matrix ns (before diag.):
       0.167  0.000  0.000
       0.000  0.167  0.000
       0.000  0.000  0.167
     ------------------------ ATOM   83 ------------------------
     Tr[ns( 83)] =   1.00000
     eigenvalues:
       0.167  0.167  0.167
     eigenvectors (columns):
       1.000  0.000  0.000
       0.000  1.000  0.000
       0.000  0.000  1.000
     occupation matrix ns (before diag.):
       0.167  0.000  0.000
       0.000  0.167  0.000
       0.000  0.000  0.167
     ------------------------ ATOM   84 ------------------------
     Tr[ns( 84)] =   1.00000
     eigenvalues:
       0.167  0.167  0.167
     eigenvectors (columns):
       1.000  0.000  0.000
       0.000  1.000  0.000
       0.000  0.000  1.000
     occupation matrix ns (before diag.):
       0.167  0.000  0.000
       0.000  0.167  0.000
       0.000  0.000  0.167
     ------------------------ ATOM   85 ------------------------
     Tr[ns( 85)] =   3.00000
     eigenvalues:
       0.500  0.500  0.500
     eigenvectors (columns):
       1.000  0.000  0.000
       0.000  1.000  0.000
       0.000  0.000  1.000
     occupation matrix ns (before diag.):
       0.500  0.000  0.000
       0.000  0.500  0.000
       0.000  0.000  0.500
     ------------------------ ATOM   86 ------------------------
     Tr[ns( 86)] =   3.00000
     eigenvalues:
       0.500  0.500  0.500
     eigenvectors (columns):
       1.000  0.000  0.000
       0.000  1.000  0.000
       0.000  0.000  1.000
     occupation matrix ns (before diag.):
       0.500  0.000  0.000
       0.000  0.500  0.000
       0.000  0.000  0.500
     ------------------------ ATOM   87 ------------------------
     Tr[ns( 87)] =   3.00000
     eigenvalues:
       0.500  0.500  0.500
     eigenvectors (columns):
       1.000  0.000  0.000
       0.000  1.000  0.000
       0.000  0.000  1.000
     occupation matrix ns (before diag.):
       0.500  0.000  0.000
       0.000  0.500  0.000
       0.000  0.000  0.500
     ------------------------ ATOM   88 ------------------------
     Tr[ns( 88)] =   3.00000
     eigenvalues:
       0.500  0.500  0.500
     eigenvectors (columns):
       1.000  0.000  0.000
       0.000  1.000  0.000
       0.000  0.000  1.000
     occupation matrix ns (before diag.):
       0.500  0.000  0.000
       0.000  0.500  0.000
       0.000  0.000  0.500
     ------------------------ ATOM   89 ------------------------
     Tr[ns( 89)] =   1.00000
     eigenvalues:
       0.167  0.167  0.167
     eigenvectors (columns):
       1.000  0.000  0.000
       0.000  1.000  0.000
       0.000  0.000  1.000
     occupation matrix ns (before diag.):
       0.167  0.000  0.000
       0.000  0.167  0.000
       0.000  0.000  0.167
     ------------------------ ATOM   90 ------------------------
     Tr[ns( 90)] =   1.00000
     eigenvalues:
       0.167  0.167  0.167
     eigenvectors (columns):
       1.000  0.000  0.000
       0.000  1.000  0.000
       0.000  0.000  1.000
     occupation matrix ns (before diag.):
       0.167  0.000  0.000
       0.000  0.167  0.000
       0.000  0.000  0.167
     ------------------------ ATOM   91 ------------------------
     Tr[ns( 91)] =   1.00000
     eigenvalues:
       0.167  0.167  0.167
     eigenvectors (columns):
       1.000  0.000  0.000
       0.000  1.000  0.000
       0.000  0.000  1.000
     occupation matrix ns (before diag.):
       0.167  0.000  0.000
       0.000  0.167  0.000
       0.000  0.000  0.167
     ------------------------ ATOM   92 ------------------------
     Tr[ns( 92)] =   1.00000
     eigenvalues:
       0.167  0.167  0.167
     eigenvectors (columns):
       1.000  0.000  0.000
       0.000  1.000  0.000
       0.000  0.000  1.000
     occupation matrix ns (before diag.):
       0.167  0.000  0.000
       0.000  0.167  0.000
       0.000  0.000  0.167
     ------------------------ ATOM   93 ------------------------
     Tr[ns( 93)] =   3.00000
     eigenvalues:
       0.500  0.500  0.500
     eigenvectors (columns):
       1.000  0.000  0.000
       0.000  1.000  0.000
       0.000  0.000  1.000
     occupation matrix ns (before diag.):
       0.500  0.000  0.000
       0.000  0.500  0.000
       0.000  0.000  0.500
     ------------------------ ATOM   94 ------------------------
     Tr[ns( 94)] =   3.00000
     eigenvalues:
       0.500  0.500  0.500
     eigenvectors (columns):
       1.000  0.000  0.000
       0.000  1.000  0.000
       0.000  0.000  1.000
     occupation matrix ns (before diag.):
       0.500  0.000  0.000
       0.000  0.500  0.000
       0.000  0.000  0.500
     ------------------------ ATOM   95 ------------------------
     Tr[ns( 95)] =   3.00000
     eigenvalues:
       0.500  0.500  0.500
     eigenvectors (columns):
       1.000  0.000  0.000
       0.000  1.000  0.000
       0.000  0.000  1.000
     occupation matrix ns (before diag.):
       0.500  0.000  0.000
       0.000  0.500  0.000
       0.000  0.000  0.500
     ------------------------ ATOM   96 ------------------------
     Tr[ns( 96)] =   3.00000
     eigenvalues:
       0.500  0.500  0.500
     eigenvectors (columns):
       1.000  0.000  0.000
       0.000  1.000  0.000
       0.000  0.000  1.000
     occupation matrix ns (before diag.):
       0.500  0.000  0.000
       0.000  0.500  0.000
       0.000  0.000  0.500
     ------------------------ ATOM   97 ------------------------
     Tr[ns( 97)] =   1.00000
     eigenvalues:
       0.167  0.167  0.167
     eigenvectors (columns):
       1.000  0.000  0.000
       0.000  1.000  0.000
       0.000  0.000  1.000
     occupation matrix ns (before diag.):
       0.167  0.000  0.000
       0.000  0.167  0.000
       0.000  0.000  0.167
     ------------------------ ATOM   98 ------------------------
     Tr[ns( 98)] =   1.00000
     eigenvalues:
       0.167  0.167  0.167
     eigenvectors (columns):
       1.000  0.000  0.000
       0.000  1.000  0.000
       0.000  0.000  1.000
     occupation matrix ns (before diag.):
       0.167  0.000  0.000
       0.000  0.167  0.000
       0.000  0.000  0.167
     ------------------------ ATOM   99 ------------------------
     Tr[ns( 99)] =   1.00000
     eigenvalues:
       0.167  0.167  0.167
     eigenvectors (columns):
       1.000  0.000  0.000
       0.000  1.000  0.000
       0.000  0.000  1.000
     occupation matrix ns (before diag.):
       0.167  0.000  0.000
       0.000  0.167  0.000
       0.000  0.000  0.167
     ------------------------ ATOM  100 ------------------------
     Tr[ns(100)] =   1.00000
     eigenvalues:
       0.167  0.167  0.167
     eigenvectors (columns):
       1.000  0.000  0.000
       0.000  1.000  0.000
       0.000  0.000  1.000
     occupation matrix ns (before diag.):
       0.167  0.000  0.000
       0.000  0.167  0.000
       0.000  0.000  0.167
     ------------------------ ATOM  101 ------------------------
     Tr[ns(101)] =   3.00000
     eigenvalues:
       0.500  0.500  0.500
     eigenvectors (columns):
       1.000  0.000  0.000
       0.000  1.000  0.000
       0.000  0.000  1.000
     occupation matrix ns (before diag.):
       0.500  0.000  0.000
       0.000  0.500  0.000
       0.000  0.000  0.500
     ------------------------ ATOM  102 ------------------------
     Tr[ns(102)] =   3.00000
     eigenvalues:
       0.500  0.500  0.500
     eigenvectors (columns):
       1.000  0.000  0.000
       0.000  1.000  0.000
       0.000  0.000  1.000
     occupation matrix ns (before diag.):
       0.500  0.000  0.000
       0.000  0.500  0.000
       0.000  0.000  0.500
     ------------------------ ATOM  103 ------------------------
     Tr[ns(103)] =   3.00000
     eigenvalues:
       0.500  0.500  0.500
     eigenvectors (columns):
       1.000  0.000  0.000
       0.000  1.000  0.000
       0.000  0.000  1.000
     occupation matrix ns (before diag.):
       0.500  0.000  0.000
       0.000  0.500  0.000
       0.000  0.000  0.500
     ------------------------ ATOM  104 ------------------------
     Tr[ns(104)] =   3.00000
     eigenvalues:
       0.500  0.500  0.500
     eigenvectors (columns):
       1.000  0.000  0.000
       0.000  1.000  0.000
       0.000  0.000  1.000
     occupation matrix ns (before diag.):
       0.500  0.000  0.000
       0.000  0.500  0.000
       0.000  0.000  0.500
     ------------------------ ATOM  105 ------------------------
     Tr[ns(105)] =   1.00000
     eigenvalues:
       0.167  0.167  0.167
     eigenvectors (columns):
       1.000  0.000  0.000
       0.000  1.000  0.000
       0.000  0.000  1.000
     occupation matrix ns (before diag.):
       0.167  0.000  0.000
       0.000  0.167  0.000
       0.000  0.000  0.167
     ------------------------ ATOM  106 ------------------------
     Tr[ns(106)] =   1.00000
     eigenvalues:
       0.167  0.167  0.167
     eigenvectors (columns):
       1.000  0.000  0.000
       0.000  1.000  0.000
       0.000  0.000  1.000
     occupation matrix ns (before diag.):
       0.167  0.000  0.000
       0.000  0.167  0.000
       0.000  0.000  0.167
     ------------------------ ATOM  107 ------------------------
     Tr[ns(107)] =   1.00000
     eigenvalues:
       0.167  0.167  0.167
     eigenvectors (columns):
       1.000  0.000  0.000
       0.000  1.000  0.000
       0.000  0.000  1.000
     occupation matrix ns (before diag.):
       0.167  0.000  0.000
       0.000  0.167  0.000
       0.000  0.000  0.167
     ------------------------ ATOM  108 ------------------------
     Tr[ns(108)] =   1.00000
     eigenvalues:
       0.167  0.167  0.167
     eigenvectors (columns):
       1.000  0.000  0.000
       0.000  1.000  0.000
       0.000  0.000  1.000
     occupation matrix ns (before diag.):
       0.167  0.000  0.000
       0.000  0.167  0.000
       0.000  0.000  0.167
     ------------------------ ATOM  109 ------------------------
     Tr[ns(109)] =   3.00000
     eigenvalues:
       0.500  0.500  0.500
     eigenvectors (columns):
       1.000  0.000  0.000
       0.000  1.000  0.000
       0.000  0.000  1.000
     occupation matrix ns (before diag.):
       0.500  0.000  0.000
       0.000  0.500  0.000
       0.000  0.000  0.500
     ------------------------ ATOM  110 ------------------------
     Tr[ns(110)] =   3.00000
     eigenvalues:
       0.500  0.500  0.500
     eigenvectors (columns):
       1.000  0.000  0.000
       0.000  1.000  0.000
       0.000  0.000  1.000
     occupation matrix ns (before diag.):
       0.500  0.000  0.000
       0.000  0.500  0.000
       0.000  0.000  0.500
     ------------------------ ATOM  111 ------------------------
     Tr[ns(111)] =   3.00000
     eigenvalues:
       0.500  0.500  0.500
     eigenvectors (columns):
       1.000  0.000  0.000
       0.000  1.000  0.000
       0.000  0.000  1.000
     occupation matrix ns (before diag.):
       0.500  0.000  0.000
       0.000  0.500  0.000
       0.000  0.000  0.500
     ------------------------ ATOM  112 ------------------------
     Tr[ns(112)] =   3.00000
     eigenvalues:
       0.500  0.500  0.500
     eigenvectors (columns):
       1.000  0.000  0.000
       0.000  1.000  0.000
       0.000  0.000  1.000
     occupation matrix ns (before diag.):
       0.500  0.000  0.000
       0.000  0.500  0.000
       0.000  0.000  0.500
     ------------------------ ATOM  113 ------------------------
     Tr[ns(113)] =   1.00000
     eigenvalues:
       0.167  0.167  0.167
     eigenvectors (columns):
       1.000  0.000  0.000
       0.000  1.000  0.000
       0.000  0.000  1.000
     occupation matrix ns (before diag.):
       0.167  0.000  0.000
       0.000  0.167  0.000
       0.000  0.000  0.167
     ------------------------ ATOM  114 ------------------------
     Tr[ns(114)] =   1.00000
     eigenvalues:
       0.167  0.167  0.167
     eigenvectors (columns):
       1.000  0.000  0.000
       0.000  1.000  0.000
       0.000  0.000  1.000
     occupation matrix ns (before diag.):
       0.167  0.000  0.000
       0.000  0.167  0.000
       0.000  0.000  0.167
     ------------------------ ATOM  115 ------------------------
     Tr[ns(115)] =   1.00000
     eigenvalues:
       0.167  0.167  0.167
     eigenvectors (columns):
       1.000  0.000  0.000
       0.000  1.000  0.000
       0.000  0.000  1.000
     occupation matrix ns (before diag.):
       0.167  0.000  0.000
       0.000  0.167  0.000
       0.000  0.000  0.167
     ------------------------ ATOM  116 ------------------------
     Tr[ns(116)] =   1.00000
     eigenvalues:
       0.167  0.167  0.167
     eigenvectors (columns):
       1.000  0.000  0.000
       0.000  1.000  0.000
       0.000  0.000  1.000
     occupation matrix ns (before diag.):
       0.167  0.000  0.000
       0.000  0.167  0.000
       0.000  0.000  0.167
     ------------------------ ATOM  117 ------------------------
     Tr[ns(117)] =   3.00000
     eigenvalues:
       0.500  0.500  0.500
     eigenvectors (columns):
       1.000  0.000  0.000
       0.000  1.000  0.000
       0.000  0.000  1.000
     occupation matrix ns (before diag.):
       0.500  0.000  0.000
       0.000  0.500  0.000
       0.000  0.000  0.500
     ------------------------ ATOM  118 ------------------------
     Tr[ns(118)] =   3.00000
     eigenvalues:
       0.500  0.500  0.500
     eigenvectors (columns):
       1.000  0.000  0.000
       0.000  1.000  0.000
       0.000  0.000  1.000
     occupation matrix ns (before diag.):
       0.500  0.000  0.000
       0.000  0.500  0.000
       0.000  0.000  0.500
     ------------------------ ATOM  119 ------------------------
     Tr[ns(119)] =   3.00000
     eigenvalues:
       0.500  0.500  0.500
     eigenvectors (columns):
       1.000  0.000  0.000
       0.000  1.000  0.000
       0.000  0.000  1.000
     occupation matrix ns (before diag.):
       0.500  0.000  0.000
       0.000  0.500  0.000
       0.000  0.000  0.500
     ------------------------ ATOM  120 ------------------------
     Tr[ns(120)] =   3.00000
     eigenvalues:
       0.500  0.500  0.500
     eigenvectors (columns):
       1.000  0.000  0.000
       0.000  1.000  0.000
       0.000  0.000  1.000
     occupation matrix ns (before diag.):
       0.500  0.000  0.000
       0.000  0.500  0.000
       0.000  0.000  0.500
     ------------------------ ATOM  121 ------------------------
     Tr[ns(121)] =   1.00000
     eigenvalues:
       0.167  0.167  0.167
     eigenvectors (columns):
       1.000  0.000  0.000
       0.000  1.000  0.000
       0.000  0.000  1.000
     occupation matrix ns (before diag.):
       0.167  0.000  0.000
       0.000  0.167  0.000
       0.000  0.000  0.167
     ------------------------ ATOM  122 ------------------------
     Tr[ns(122)] =   1.00000
     eigenvalues:
       0.167  0.167  0.167
     eigenvectors (columns):
       1.000  0.000  0.000
       0.000  1.000  0.000
       0.000  0.000  1.000
     occupation matrix ns (before diag.):
       0.167  0.000  0.000
       0.000  0.167  0.000
       0.000  0.000  0.167
     ------------------------ ATOM  123 ------------------------
     Tr[ns(123)] =   1.00000
     eigenvalues:
       0.167  0.167  0.167
     eigenvectors (columns):
       1.000  0.000  0.000
       0.000  1.000  0.000
       0.000  0.000  1.000
     occupation matrix ns (before diag.):
       0.167  0.000  0.000
       0.000  0.167  0.000
       0.000  0.000  0.167
     ------------------------ ATOM  124 ------------------------
     Tr[ns(124)] =   1.00000
     eigenvalues:
       0.167  0.167  0.167
     eigenvectors (columns):
       1.000  0.000  0.000
       0.000  1.000  0.000
       0.000  0.000  1.000
     occupation matrix ns (before diag.):
       0.167  0.000  0.000
       0.000  0.167  0.000
       0.000  0.000  0.167
     ------------------------ ATOM  125 ------------------------
     Tr[ns(125)] =   3.00000
     eigenvalues:
       0.500  0.500  0.500
     eigenvectors (columns):
       1.000  0.000  0.000
       0.000  1.000  0.000
       0.000  0.000  1.000
     occupation matrix ns (before diag.):
       0.500  0.000  0.000
       0.000  0.500  0.000
       0.000  0.000  0.500
     ------------------------ ATOM  126 ------------------------
     Tr[ns(126)] =   3.00000
     eigenvalues:
       0.500  0.500  0.500
     eigenvectors (columns):
       1.000  0.000  0.000
       0.000  1.000  0.000
       0.000  0.000  1.000
     occupation matrix ns (before diag.):
       0.500  0.000  0.000
       0.000  0.500  0.000
       0.000  0.000  0.500
     ------------------------ ATOM  127 ------------------------
     Tr[ns(127)] =   3.00000
     eigenvalues:
       0.500  0.500  0.500
     eigenvectors (columns):
       1.000  0.000  0.000
       0.000  1.000  0.000
       0.000  0.000  1.000
     occupation matrix ns (before diag.):
       0.500  0.000  0.000
       0.000  0.500  0.000
       0.000  0.000  0.500
     ------------------------ ATOM  128 ------------------------
     Tr[ns(128)] =   3.00000
     eigenvalues:
       0.500  0.500  0.500
     eigenvectors (columns):
       1.000  0.000  0.000
       0.000  1.000  0.000
       0.000  0.000  1.000
     occupation matrix ns (before diag.):
       0.500  0.000  0.000
       0.000  0.500  0.000
       0.000  0.000  0.500
     ------------------------ ATOM  129 ------------------------
     Tr[ns(129)] =   1.00000
     eigenvalues:
       0.167  0.167  0.167
     eigenvectors (columns):
       1.000  0.000  0.000
       0.000  1.000  0.000
       0.000  0.000  1.000
     occupation matrix ns (before diag.):
       0.167  0.000  0.000
       0.000  0.167  0.000
       0.000  0.000  0.167
     ------------------------ ATOM  130 ------------------------
     Tr[ns(130)] =   1.00000
     eigenvalues:
       0.167  0.167  0.167
     eigenvectors (columns):
       1.000  0.000  0.000
       0.000  1.000  0.000
       0.000  0.000  1.000
     occupation matrix ns (before diag.):
       0.167  0.000  0.000
       0.000  0.167  0.000
       0.000  0.000  0.167
     ------------------------ ATOM  131 ------------------------
     Tr[ns(131)] =   1.00000
     eigenvalues:
       0.167  0.167  0.167
     eigenvectors (columns):
       1.000  0.000  0.000
       0.000  1.000  0.000
       0.000  0.000  1.000
     occupation matrix ns (before diag.):
       0.167  0.000  0.000
       0.000  0.167  0.000
       0.000  0.000  0.167
     ------------------------ ATOM  132 ------------------------
     Tr[ns(132)] =   1.00000
     eigenvalues:
       0.167  0.167  0.167
     eigenvectors (columns):
       1.000  0.000  0.000
       0.000  1.000  0.000
       0.000  0.000  1.000
     occupation matrix ns (before diag.):
       0.167  0.000  0.000
       0.000  0.167  0.000
       0.000  0.000  0.167
     ------------------------ ATOM  133 ------------------------
     Tr[ns(133)] =   3.00000
     eigenvalues:
       0.500  0.500  0.500
     eigenvectors (columns):
       1.000  0.000  0.000
       0.000  1.000  0.000
       0.000  0.000  1.000
     occupation matrix ns (before diag.):
       0.500  0.000  0.000
       0.000  0.500  0.000
       0.000  0.000  0.500
     ------------------------ ATOM  134 ------------------------
     Tr[ns(134)] =   3.00000
     eigenvalues:
       0.500  0.500  0.500
     eigenvectors (columns):
       1.000  0.000  0.000
       0.000  1.000  0.000
       0.000  0.000  1.000
     occupation matrix ns (before diag.):
       0.500  0.000  0.000
       0.000  0.500  0.000
       0.000  0.000  0.500
     ------------------------ ATOM  135 ------------------------
     Tr[ns(135)] =   3.00000
     eigenvalues:
       0.500  0.500  0.500
     eigenvectors (columns):
       1.000  0.000  0.000
       0.000  1.000  0.000
       0.000  0.000  1.000
     occupation matrix ns (before diag.):
       0.500  0.000  0.000
       0.000  0.500  0.000
       0.000  0.000  0.500
     ------------------------ ATOM  136 ------------------------
     Tr[ns(136)] =   3.00000
     eigenvalues:
       0.500  0.500  0.500
     eigenvectors (columns):
       1.000  0.000  0.000
       0.000  1.000  0.000
       0.000  0.000  1.000
     occupation matrix ns (before diag.):
       0.500  0.000  0.000
       0.000  0.500  0.000
       0.000  0.000  0.500
     ------------------------ ATOM  137 ------------------------
     Tr[ns(137)] =   1.00000
     eigenvalues:
       0.167  0.167  0.167
     eigenvectors (columns):
       1.000  0.000  0.000
       0.000  1.000  0.000
       0.000  0.000  1.000
     occupation matrix ns (before diag.):
       0.167  0.000  0.000
       0.000  0.167  0.000
       0.000  0.000  0.167
     ------------------------ ATOM  138 ------------------------
     Tr[ns(138)] =   1.00000
     eigenvalues:
       0.167  0.167  0.167
     eigenvectors (columns):
       1.000  0.000  0.000
       0.000  1.000  0.000
       0.000  0.000  1.000
     occupation matrix ns (before diag.):
       0.167  0.000  0.000
       0.000  0.167  0.000
       0.000  0.000  0.167
     ------------------------ ATOM  139 ------------------------
     Tr[ns(139)] =   1.00000
     eigenvalues:
       0.167  0.167  0.167
     eigenvectors (columns):
       1.000  0.000  0.000
       0.000  1.000  0.000
       0.000  0.000  1.000
     occupation matrix ns (before diag.):
       0.167  0.000  0.000
       0.000  0.167  0.000
       0.000  0.000  0.167
     ------------------------ ATOM  140 ------------------------
     Tr[ns(140)] =   1.00000
     eigenvalues:
       0.167  0.167  0.167
     eigenvectors (columns):
       1.000  0.000  0.000
       0.000  1.000  0.000
       0.000  0.000  1.000
     occupation matrix ns (before diag.):
       0.167  0.000  0.000
       0.000  0.167  0.000
       0.000  0.000  0.167
     ------------------------ ATOM  141 ------------------------
     Tr[ns(141)] =   3.00000
     eigenvalues:
       0.500  0.500  0.500
     eigenvectors (columns):
       1.000  0.000  0.000
       0.000  1.000  0.000
       0.000  0.000  1.000
     occupation matrix ns (before diag.):
       0.500  0.000  0.000
       0.000  0.500  0.000
       0.000  0.000  0.500
     ------------------------ ATOM  142 ------------------------
     Tr[ns(142)] =   3.00000
     eigenvalues:
       0.500  0.500  0.500
     eigenvectors (columns):
       1.000  0.000  0.000
       0.000  1.000  0.000
       0.000  0.000  1.000
     occupation matrix ns (before diag.):
       0.500  0.000  0.000
       0.000  0.500  0.000
       0.000  0.000  0.500
     ------------------------ ATOM  143 ------------------------
     Tr[ns(143)] =   3.00000
     eigenvalues:
       0.500  0.500  0.500
     eigenvectors (columns):
       1.000  0.000  0.000
       0.000  1.000  0.000
       0.000  0.000  1.000
     occupation matrix ns (before diag.):
       0.500  0.000  0.000
       0.000  0.500  0.000
       0.000  0.000  0.500
     ------------------------ ATOM  144 ------------------------
     Tr[ns(144)] =   3.00000
     eigenvalues:
       0.500  0.500  0.500
     eigenvectors (columns):
       1.000  0.000  0.000
       0.000  1.000  0.000
       0.000  0.000  1.000
     occupation matrix ns (before diag.):
       0.500  0.000  0.000
       0.000  0.500  0.000
       0.000  0.000  0.500
     ------------------------ ATOM  145 ------------------------
     Tr[ns(145)] =   1.00000
     eigenvalues:
       0.167  0.167  0.167
     eigenvectors (columns):
       1.000  0.000  0.000
       0.000  1.000  0.000
       0.000  0.000  1.000
     occupation matrix ns (before diag.):
       0.167  0.000  0.000
       0.000  0.167  0.000
       0.000  0.000  0.167
     ------------------------ ATOM  146 ------------------------
     Tr[ns(146)] =   1.00000
     eigenvalues:
       0.167  0.167  0.167
     eigenvectors (columns):
       1.000  0.000  0.000
       0.000  1.000  0.000
       0.000  0.000  1.000
     occupation matrix ns (before diag.):
       0.167  0.000  0.000
       0.000  0.167  0.000
       0.000  0.000  0.167
     ------------------------ ATOM  147 ------------------------
     Tr[ns(147)] =   1.00000
     eigenvalues:
       0.167  0.167  0.167
     eigenvectors (columns):
       1.000  0.000  0.000
       0.000  1.000  0.000
       0.000  0.000  1.000
     occupation matrix ns (before diag.):
       0.167  0.000  0.000
       0.000  0.167  0.000
       0.000  0.000  0.167
     ------------------------ ATOM  148 ------------------------
     Tr[ns(148)] =   1.00000
     eigenvalues:
       0.167  0.167  0.167
     eigenvectors (columns):
       1.000  0.000  0.000
       0.000  1.000  0.000
       0.000  0.000  1.000
     occupation matrix ns (before diag.):
       0.167  0.000  0.000
       0.000  0.167  0.000
       0.000  0.000  0.167
     ------------------------ ATOM  149 ------------------------
     Tr[ns(149)] =   3.00000
     eigenvalues:
       0.500  0.500  0.500
     eigenvectors (columns):
       1.000  0.000  0.000
       0.000  1.000  0.000
       0.000  0.000  1.000
     occupation matrix ns (before diag.):
       0.500  0.000  0.000
       0.000  0.500  0.000
       0.000  0.000  0.500
     ------------------------ ATOM  150 ------------------------
     Tr[ns(150)] =   3.00000
     eigenvalues:
       0.500  0.500  0.500
     eigenvectors (columns):
       1.000  0.000  0.000
       0.000  1.000  0.000
       0.000  0.000  1.000
     occupation matrix ns (before diag.):
       0.500  0.000  0.000
       0.000  0.500  0.000
       0.000  0.000  0.500
     ------------------------ ATOM  151 ------------------------
     Tr[ns(151)] =   3.00000
     eigenvalues:
       0.500  0.500  0.500
     eigenvectors (columns):
       1.000  0.000  0.000
       0.000  1.000  0.000
       0.000  0.000  1.000
     occupation matrix ns (before diag.):
       0.500  0.000  0.000
       0.000  0.500  0.000
       0.000  0.000  0.500
     ------------------------ ATOM  152 ------------------------
[...]
   -19.5400 -19.5399 -19.5394 -19.5391 -19.5390 -19.5387 -19.5386 -19.5377
   -19.5375 -19.5373 -19.5372 -19.5370 -19.5368 -19.5367 -19.5364 -19.5363
   -19.5362 -19.5359 -19.5358 -19.5357 -19.5352 -19.5352 -19.5350 -19.5349
   -19.5348 -19.5345 -19.5341 -19.5339 -19.5335 -19.5333 -19.5331 -19.5329
   -19.5328 -19.5327 -19.5325 -19.5322 -19.5322 -19.5319 -19.5318 -19.5318
   -19.5316 -19.5315 -19.5310 -19.5310 -19.5309 -19.5303 -19.5302 -19.5301
   -19.5299 -19.5298 -19.5292 -19.5290 -19.5289 -19.5288 -19.5286 -19.5284
   -19.5284 -19.5282 -19.5278 -19.5277 -19.5276 -19.5273 -19.5271 -19.5270
   -19.5269 -19.5269 -19.5268 -19.5255 -19.5253 -19.5242 -19.5241 -19.5239
   -19.5231 -19.5230 -19.5229 -19.5223 -19.5220 -19.5219 -19.5218 -19.5210
   -19.5207 -19.5206 -19.5206 -19.5203 -19.5202 -19.5200 -19.5197 -19.5196
   -19.5192 -19.5188 -19.5186 -19.5185 -19.5181 -19.5179 -19.5177 -19.5175
   -19.5174 -19.5171 -19.5169 -19.5167 -19.5166 -19.5165 -19.5163 -19.5160
   -19.5156 -19.5156 -19.5149 -19.5148 -19.5145 -19.5145 -19.5140 -19.5138
   -19.5136 -19.5135 -19.5133 -19.5131 -19.5129 -19.5126 -19.5126 -19.5123
   -19.5119 -19.5118 -19.5116 -19.5115 -19.5111 -19.5110 -19.5108 -19.5106
   -19.5104 -19.5101 -19.5099 -19.5097 -19.5097 -19.5096 -19.5093 -19.5089
   -19.5087 -19.5086 -19.5085 -19.5084 -19.5077 -19.5076 -19.5075 -19.5069
   -19.5068 -19.5068 -19.5066 -19.5065 -19.5062 -19.5059 -19.5057 -19.5055
   -19.5054 -19.5053 -19.5048 -19.5047 -19.5043 -19.5042 -19.5041 -19.5040
   -19.5027 -19.5005 -19.5003 -19.5000 -19.4999 -19.4994 -19.4991 -19.4983
   -19.4980 -19.4976 -19.4976 -19.4965 -19.4962 -19.4958 -19.4951 -19.4933
   -19.4929 -19.4929 -19.4923 -19.4919 -19.4919 -19.4918 -19.4918 -19.4912
   -19.4911 -19.4905 -19.4903 -19.4895 -19.4892 -19.4883 -19.4882 -19.4874
   -19.4870 -19.4867 -19.4855 -19.4823 -19.4821 -19.4811 -19.4804 -19.4772
   -19.4766 -19.4722 -19.4698 -19.4603  -7.3812  -7.3768  -7.3707  -7.3608
    -7.3596  -7.3521  -7.3503  -7.3494  -7.3492  -7.3472  -7.3464  -7.3455
    -7.3445  -7.3428  -7.3405  -7.3398  -7.3389  -7.3379  -7.3372  -7.3350
    -7.3345  -7.3333  -7.3321  -7.3305  -7.3300  -7.3295  -7.3282  -7.3278
    -7.3275  -7.3269  -7.3260  -7.3250  -7.3235  -7.3227  -7.3212  -7.3202
    -7.3198  -7.3180  -7.3163  -7.3155  -7.3149  -7.3145  -7.3140  -7.3137
    -7.3123  -7.3090  -7.3073  -7.3061  -7.3056  -7.3054  -7.3042  -7.3040
    -7.3038  -7.3022  -7.3017  -7.3016  -7.3011  -7.2997  -7.2989  -7.2978
    -7.2970  -7.2964  -7.2956  -7.2955  -7.2947  -7.2945  -7.2931  -7.2925
    -7.2923  -7.2911  -7.2899  -7.2893  -7.2886  -7.2883  -7.2880  -7.2874
    -7.2872  -7.2865  -7.2848  -7.2846  -7.2835  -7.2833  -7.2818  -7.2811
    -7.2803  -7.2801  -7.2796  -7.2783  -7.2778  -7.2775  -7.2764  -7.2759
    -7.2759  -7.2753  -7.2748  -7.2745  -7.2738  -7.2731  -7.2727  -7.2721
    -7.2719  -7.2713  -7.2708  -7.2704  -7.2702  -7.2698  -7.2686  -7.2685
    -7.2682  -7.2673  -7.2671  -7.2666  -7.2664  -7.2655  -7.2651  -7.2649
    -7.2645  -7.2637  -7.2631  -7.2628  -7.2620  -7.2609  -7.2604  -7.2601
    -7.2596  -7.2595  -7.2582  -7.2578  -7.2573  -7.2568  -7.2557  -7.2555
    -7.2553  -7.2543  -7.2538  -7.2525  -7.2523  -7.2510  -7.2505  -7.2504
    -7.2498  -7.2492  -7.2489  -7.2482  -7.2480  -7.2478  -7.2475  -7.2472
    -7.2467  -7.2459  -7.2456  -7.2451  -7.2449  -7.2446  -7.2442  -7.2438
    -7.2434  -7.2427  -7.2411  -7.2409  -7.2404  -7.2402  -7.2400  -7.2391
    -7.2390  -7.2386  -7.2384  -7.2380  -7.2378  -7.2375  -7.2370  -7.2366
    -7.2364  -7.2357  -7.2352  -7.2337  -7.2335  -7.2323  -7.2312  -7.2309
    -7.2300  -7.2296  -7.2289  -7.2286  -7.2282  -7.2279  -7.2276  -7.2270
    -7.2270  -7.2260  -7.2260  -7.2254  -7.2254  -7.2251  -7.2247  -7.2235
    -7.2227  -7.2214  -7.2210  -7.2206  -7.2201  -7.2198  -7.2194  -7.2188
    -7.2185  -7.2178  -7.2175  -7.2168  -7.2162  -7.2160  -7.2153  -7.2152
    -7.2141  -7.2137  -7.2132  -7.2126  -7.2124  -7.2120  -7.2114  -7.2110
    -7.2108  -7.2095  -7.2091  -7.2084  -7.2082  -7.2079  -7.2074  -7.2069
    -7.2068  -7.2056  -7.2052  -7.2049  -7.2040  -7.2034  -7.2031  -7.2025
    -7.2021  -7.2018  -7.2010  -7.1989  -7.1987  -7.1983  -7.1981  -7.1972
    -7.1968  -7.1966  -7.1961  -7.1958  -7.1950  -7.1946  -7.1945  -7.1943
    -7.1939  -7.1934  -7.1934  -7.1930  -7.1925  -7.1920  -7.1915  -7.1905
    -7.1904  -7.1897  -7.1896  -7.1890  -7.1885  -7.1881  -7.1879  -7.1877
    -7.1859  -7.1853  -7.1850  -7.1846  -7.1839  -7.1837  -7.1832  -7.1830
    -7.1824  -7.1817  -7.1815  -7.1809  -7.1807  -7.1803  -7.1799  -7.1793
    -7.1790  -7.1789  -7.1786  -7.1784  -7.1783  -7.1779  -7.1774  -7.1772
    -7.1767  -7.1762  -7.1758  -7.1754  -7.1747  -7.1742  -7.1741  -7.1736
    -7.1731  -7.1727  -7.1723  -7.1719  -7.1713  -7.1709  -7.1707  -7.1703
    -7.1701  -7.1688  -7.1684  -7.1681  -7.1675  -7.1671  -7.1664  -7.1661
    -7.1657  -7.1656  -7.1649  -7.1645  -7.1643  -7.1636  -7.1630  -7.1627
    -7.1624  -7.1621  -7.1619  -7.1614  -7.1608  -7.1606  -7.1601  -7.1596
    -7.1594  -7.1593  -7.1593  -7.1582  -7.1578  -7.1570  -7.1567  -7.1561
    -7.1558  -7.1556  -7.1554  -7.1550  -7.1547  -7.1544  -7.1541  -7.1538
    -7.1534  -7.1530  -7.1527  -7.1514  -7.1512  -7.1511  -7.1509  -7.1503
    -7.1502  -7.1496  -7.1494  -7.1491  -7.1487  -7.1479  -7.1473  -7.1470
    -7.1469  -7.1466  -7.1460  -7.1459  -7.1455  -7.1453  -7.1451  -7.1448
    -7.1442  -7.1433  -7.1427  -7.1426  -7.1423  -7.1420  -7.1415  -7.1409
    -7.1406  -7.1400  -7.1399  -7.1396  -7.1390  -7.1386  -7.1381  -7.1378
    -7.1375  -7.1371  -7.1369  -7.1364  -7.1362  -7.1356  -7.1355  -7.1347
    -7.1345  -7.1342  -7.1336  -7.1328  -7.1323  -7.1313  -7.1312  -7.1305
    -7.1303  -7.1298  -7.1290  -7.1287  -7.1277  -7.1275  -7.1271  -7.1269
    -7.1264  -7.1260  -7.1255  -7.1253  -7.1249  -7.1242  -7.1234  -7.1231
    -7.1229  -7.1226  -7.1225  -7.1221  -7.1216  -7.1212  -7.1210  -7.1199
    -7.1198  -7.1195  -7.1180  -7.1179  -7.1164  -7.1164  -7.1160  -7.1157
    -7.1150  -7.1149  -7.1140  -7.1136  -7.1129  -7.1121  -7.1115  -7.1104
    -7.1099  -7.1097  -7.1095  -7.1092  -7.1089  -7.1082  -7.1075  -7.1068
    -7.1064  -7.1056  -7.1052  -7.1049  -7.1044  -7.1039  -7.1037  -7.1026
    -7.1025  -7.1021  -7.1018  -7.1011  -7.1008  -7.1007  -7.0997  -7.0993
    -7.0986  -7.0982  -7.0976  -7.0973  -7.0971  -7.0967  -7.0964  -7.0961
    -7.0956  -7.0944  -7.0939  -7.0934  -7.0927  -7.0926  -7.0924  -7.0915
    -7.0903  -7.0896  -7.0893  -7.0887  -7.0874  -7.0873  -7.0864  -7.0849
    -7.0839  -7.0828  -7.0814  -7.0809  -7.0802  -7.0799  -7.0792  -7.0790
    -7.0773  -7.0758  -7.0757  -7.0751  -7.0743  -7.0738  -7.0737  -7.0731
    -7.0701  -7.0664  -7.0663  -7.0622  -7.0605  -7.0599  -7.0595  -7.0577
    -7.0562  -7.0555  -7.0553  -7.0540  -7.0533  -7.0519  -7.0501  -7.0451
    -7.0368  -7.0348  -7.0264  -7.0231  -7.0214  -7.0105  -7.0095  -7.0087
    -7.0073  -7.0009  -6.9986  -6.9972  -6.9795  -6.9777  -6.9533  -6.9519
    -3.5634  -3.5562  -3.4744  -3.4491  -3.3895  -3.3124  -3.2793  -3.2713
    -3.2543  -3.1910  -3.1640  -3.1015  -3.0394  -3.0301  -3.0167  -2.9821
    -2.9326  -2.8940  -2.8515  -2.8334  -2.8274  -2.7961  -2.7812  -2.7548
    -2.7234  -2.7133  -2.6973  -2.6660  -2.6414  -2.6051  -2.5818  -2.5581
    -2.5524  -2.5349  -2.5147  -2.4837  -2.4443  -2.4325  -2.3926  -2.3601
    -2.3144  -2.2910  -2.2700  -2.2541  -2.2345  -2.2270  -2.2058  -2.1944
    -2.1668  -2.1516  -2.1217  -2.0597  -2.0358  -2.0201  -2.0160  -1.9689
    -1.9402  -1.8984  -1.8751  -1.8704  -1.8092  -1.7913  -1.7769  -1.7438
    -1.7071  -1.6895  -1.6682  -1.6546  -1.6349  -1.6026  -1.5955  -1.5629
    -1.5359  -1.4934  -1.4837  -1.4678  -1.4579  -1.4439  -1.4308  -1.4128
    -1.4082  -1.3695  -1.3472  -1.3401  -1.3275  -1.2800  -1.2446  -1.2366
    -1.2264  -1.2127  -1.1940  -1.1440  -1.1257  -1.1129  -1.0895  -1.0430
    -1.0349  -0.9999  -0.9720  -0.9105  -0.9055  -0.8423  -0.8206  -0.8073
    -0.7916  -0.7492  -0.7258  -0.6847  -0.4039  -0.3323  -0.2812  -0.2006
     0.0184   0.0502   0.0646   0.0771   0.0952   0.1216   0.1312   0.1339
     0.1565   0.1694   0.1835   0.1942   0.2132   0.2478   0.2540   0.2723
     0.2839   0.2938   0.3081   0.3389   0.3412   0.3609   0.3724   0.3753
     0.3954   0.4306   0.4407   0.4623   0.4793   0.5012   0.5289   0.5451
     0.5816   0.6063   0.6267   0.6403   0.6564   0.6980   0.7100   0.7422
     0.7618   0.7852   0.7922   0.8394   0.8522   0.8692   0.8937   0.9062
     0.9195   0.9375   0.9453   0.9676   0.9845   1.0151   1.0192   1.0380
     1.3662   1.4111   1.4582   1.4949   1.5092   1.5259   1.5961   1.6332
     1.6383   1.6772   1.6892   1.7393   1.7433   1.7674   1.8085   1.8573
     1.8694   1.8993   1.9231   1.9443   1.9586   1.9758   2.0097   2.0302
     2.0653   2.0898   2.1139   2.1327   2.8557   2.8628   2.8955   2.9313
     2.9452   2.9613   2.9645   2.9841   3.0332   3.0504   3.0738   3.0944
     3.1258   3.1384   3.1663   3.2024   3.2924   3.3149   3.3255   3.3523
     3.3718   3.3776   3.4004   3.4099   3.4148   3.4244   3.4484   3.4677
     3.4772   3.4870   3.5066   3.5192   3.5359   3.5471   3.5697   3.5867
     3.5941   3.6014   3.6213   3.6276   3.6391   3.6548   3.6661   3.6733
     3.6985   3.7143   3.7522   3.7561   3.7613   3.7774   3.7973   3.8176
     3.8223   3.8392   3.8565   3.8663   3.8974   3.9090   3.9414   3.9576
     3.9678   4.0007   4.0405   4.0565   4.2019   4.2227   4.2393   4.2511
     4.2815   4.3459   4.3617   4.3667   4.3741   4.3875   4.4084   4.4137
     4.4350   4.4613   4.4658   4.4860   4.4922   4.5013   4.5279   4.5327
     4.5608   4.5761   4.5835   4.6023   4.6169   4.6325   4.6411   4.6618
     4.6678   4.6788   4.6969   4.7371   4.7454   4.7555   4.7746   4.7879
     4.8030   4.8193   4.8357   4.8466   4.8693   4.8875   4.9023   4.9053
     4.9222   4.9264   4.9489   4.9712   4.9722   4.9906   5.0113   5.0260
     5.0324   5.0376   5.0598   5.0729   5.0846   5.0942   5.1184   5.1420
     5.1494   5.1586   5.1702   5.1780   5.1873   5.2056   5.2107   5.2183
     5.2393   5.2511   5.2725   5.2949   5.3172   5.3322   5.3363   5.3557
     5.3687   5.3793   5.3898   5.3979   5.4344   5.4451   5.4804   5.4928
     5.5000   5.5058   5.5232   5.5385   5.5463   5.5654   5.5723   5.5944
     5.6081   5.6407   5.6506   5.6586   5.6758   5.6825   5.7262   5.7308
     5.7337   5.7491   5.7647   5.7868   5.7917   5.8105   5.8287   5.8321
     5.8646   5.8779   5.8928   5.9101   5.9580   5.9615   5.9889   6.0171
     6.0358   6.0485   6.0550   6.0665   6.0876   6.1239   6.1381   6.1448
     6.1477   6.1818   6.2187   6.2365   6.2389   6.2485   6.2610   6.2974
     6.3082   6.3315   6.3609   6.3646   6.3804   6.4090   6.4179   6.4581
     6.4896   6.5059   6.5097   6.5276   6.5455   6.5575   6.5794   6.5913
     6.6297   6.6363   6.6557   6.6688   6.7054   6.7215   6.7326   6.7477
     6.7842   6.7990   6.8107   6.8273   6.8639   6.8816   6.8997   6.9167
     6.9910   7.0306   7.0628   7.1034   7.3786   7.4829   7.5264   7.6116
     9.2562   9.3574   9.3846   9.4488   9.4531   9.4928   9.5052   9.5333
     9.5776   9.6098   9.6216   9.6391   9.6757   9.6866   9.7202   9.7287
     9.7368   9.7624   9.7633   9.7791   9.7907   9.8036   9.8063   9.8142
     9.8417   9.8565   9.8693   9.8870   9.8948   9.9129   9.9501   9.9817
     9.9867  10.0042  10.0402  10.0474  10.0579  10.0707  10.0841  10.1076
    10.1204  10.1277  10.1388  10.1421  10.1538  10.1782  10.1840  10.1985
    10.1990  10.2177  10.2332  10.2408  10.2465  10.2627  10.2743  10.2872
    10.2947  10.3198  10.3358  10.3378  10.3582  10.3814  10.3870  10.4048
    10.4224  10.4344  10.4372  10.4471  10.4703  10.4746  10.4815  10.4843
    10.4973  10.5061  10.5233  10.5247  10.5354  10.5452  10.5528  10.5625
    10.5771  10.5908  10.6156  10.6256  10.6359  10.6574  10.6745  10.6853
    10.7094  10.7209  10.7374  10.7639  10.7727  10.7763  10.7805  10.8023
    10.8097  10.8137  10.8262  10.8387  10.8550  10.8604  10.8854  10.8951
    10.9066  10.9302  10.9658  10.9823  11.2220  11.2374  11.2881  11.3682
    11.4026  11.4442  11.4824  11.5045  11.5194  11.5494  11.5600  11.5727
    11.5875  11.6197  11.6211  11.6240  11.6594  11.6683  11.6772  11.6935
    11.7060  11.7224  11.7323  11.7350  11.7629  11.7781  11.8026  11.8117
    11.8133  11.8354  11.8484  11.8574  11.8646  11.8793  11.8839  11.8927
    11.9108  11.9186  11.9259  11.9406  11.9462  11.9722  11.9881  12.0029
    12.1209  12.1377  12.1568  12.1804  12.1868  12.1939  12.2132  12.2148
    12.2276  12.2365  12.2401  12.2582  12.2614  12.2738  12.2874  12.3119
    12.3647  12.3792  12.3854  12.4086  12.4255  12.4302  12.4376  12.4416
    12.4587  12.4749  12.4803  12.4868  12.4978  12.5097  12.5129  12.5241
    12.5354  12.5416  12.5523  12.5562  12.5624  12.5711  12.5765  12.5870
    12.5936  12.6002  12.6099  12.6162  12.6368  12.6410  12.6477  12.6570
    12.6576  12.6772  12.6855  12.6968  12.7060  12.7109  12.7179  12.7361
    12.7522  12.7563  12.7684  12.7724  12.7783  12.7825  12.7927  12.7956
    12.8071  12.8211  12.8288  12.8385  12.9004  12.9170  12.9336  12.9510
    12.9612  12.9894  12.9928  13.0180  13.1292  13.1370  13.1424  13.1627
    13.1713  13.1859  13.1946  13.2056  13.2192  13.2340  13.2454  13.2536
    13.2558  13.2725  13.2788  13.2927  13.3036  13.3138  13.3175  13.3234
    13.3356  13.3498  13.3595  13.3726  13.3784  13.3919  13.4005  13.4122
    13.4288  13.4340  13.4453  13.4655  13.4699  13.4802  13.4856  13.4948
    13.5087  13.5186  13.5303  13.5427  13.5528  13.5684  13.5801  13.5988
    13.6031  13.6186  13.6223  13.6459  13.6559  13.6702  13.6859  13.6921
    13.7105  13.7186  13.7269  13.7608  13.8326  13.8597  13.8613  13.8866
    13.8950  13.9013  13.9118  13.9273  13.9399  13.9446  13.9493  13.9553
    13.9707  13.9756  13.9927  13.9994  14.0025  14.0131  14.0153  14.0292
    14.0346  14.0461  14.0563  14.0681  14.0727  14.0812  14.0952  14.1029
    14.1110  14.1199  14.1351  14.1380  14.1506  14.1587  14.1637  14.1737
    14.1832  14.1888  14.2041  14.2124  14.2242  14.2320  14.2402  14.2515
    14.2609  14.2804  14.2826  14.2882  14.3033  14.3107  14.3193  14.3289
    14.3449  14.3469  14.3587  14.3604  14.3794  14.3853  14.3931  14.4126
    14.4259  14.4281  14.4407  14.4602  14.4639  14.4851  14.5144  14.5306
    14.6093  14.6852  14.6953  14.7080  14.7205  14.7502  14.7560  14.8172
    14.8932  14.9240  14.9489  14.9591  14.9821  14.9873  15.0019  15.0469
    15.1103  15.1357  15.1731  15.1975  15.2003  15.2146  15.2303  15.2593
    15.2727  15.2815  15.2953  15.3140  15.3315  15.3416  15.3487  15.4081
    15.5018  15.5312  15.5443  15.5565  15.5844  15.5940  15.6024  15.6105
    15.6338  15.6584  15.6646  15.6719  15.6893  15.7007  15.7153  15.7245
    15.7310  15.7437  15.7536  15.7616  15.7698  15.7812  15.7897  15.8026
    15.8059  15.8132  15.8458  15.8531  15.8884  15.8944  15.9160  15.9346
    15.9512  15.9554  15.9701  15.9825  16.0050  16.0121  16.0190  16.0299
    16.0414  16.0621  16.1013  16.1106  16.1380  16.1520  16.1676  16.1944
    16.2053  16.2082  16.2189  16.2356  16.2395  16.2686  16.3180  16.3331
    16.3530  16.3653  16.3739  16.4180  16.4289  16.4509  16.4701  16.5019
    16.5118  16.5228  16.5251  16.5268  16.5326  16.5507  16.5562  16.5671
    16.5707  16.5880  16.5994  16.6031  16.6144  16.6271  16.6378  16.6504
    16.6629  16.7054  16.7122  16.7152  16.7803  16.8078  16.8141  16.8178
    16.8387  16.8425  16.8458  16.8609  16.8667  16.8686  16.8877  16.9046
    16.9191  16.9262  16.9311  16.9448  16.9497  16.9685  16.9726  16.9789
    16.9872  17.0067  17.0101  17.0120  17.0278  17.0367  17.0514  17.0613
    17.0778  17.0838  17.1015  17.1114  17.1146  17.1259  17.1335  17.1462
    17.1599  17.1631  17.1707  17.1794  17.1925  17.2041  17.2107  17.2137
    17.2291  17.2370  17.2480  17.2574  17.2636  17.2737  17.2980  17.3213
    17.3376  17.3511  17.3581  17.3646  17.3819  17.3895  17.3974  17.4116
    17.4273  17.4328  17.4380  17.4498  17.4550  17.4622  17.4712  17.4837
    17.4867  17.4904  17.5006  17.5131  17.5223  17.5284  17.5348  17.5498
    17.5589  17.5621  17.5736  17.5869  17.5934  17.6026  17.6052  17.6168
    17.6241  17.6307  17.6413  17.6643  17.6722  17.6795  17.7062  17.7113
    17.7369  17.7457  17.7623  17.7675  17.8527  17.8945  17.9132  17.9495
    17.9732  17.9968  18.0068  18.0164  18.0250  18.0351  18.0447  18.0550
    18.0609  18.0777  18.0857  18.0966  18.0998  18.1181  18.1327  18.1371
    18.1453  18.1574  18.1657  18.1725  18.1843  18.1916  18.2071  18.2127
    18.2233  18.2286  18.2503  18.2707  18.2853  18.2981  18.3283  18.3438
    18.4137  18.4295  18.4630  18.4715  18.4764  18.4921  18.5037  18.5136
    18.5229  18.5347  18.5368  18.5535  18.5682  18.5726  18.5837  18.5968
    18.6065  18.6131  18.6337  18.6647  18.6789  18.6860  18.7387  18.7563
    18.7695  18.7918  18.8132  18.8341  18.8521  18.8652  18.8782  18.9031
    18.9082  18.9128  18.9304  18.9429  18.9571  18.9639  18.9711  18.9764
    18.9940  19.0029  19.0180  19.0337  19.0504  19.0624  19.0664  19.0742

     highest occupied, lowest unoccupied level (ev):     7.6602    8.4658

!    total energy              =  -37799.95005055 Ry
     estimated scf accuracy    <       0.00000410 Ry

     The total energy is the sum of the following terms:
     one-electron contribution =  -19623.43615670 Ry
     hartree contribution      =   11807.87519005 Ry
     xc contribution           =   -9549.20219277 Ry
     ewald contribution        =  -20433.45045062 Ry
     Hubbard energy            =      -1.73644051 Ry

     convergence has been achieved in  12 iterations

     Writing all to output data dir ./tmp_In0.0Ga1.0As0.5Sb0.5_cube_3x3x3.8/In0.0Ga1.0As0.5Sb0.5_cube_3x3x3.8.save/ :
     XML data file, charge density, pseudopotentials, collected wavefunctions

     init_run     :    230.40s CPU    233.12s WALL (       1 calls)
     electrons    :   8569.89s CPU   8590.69s WALL (       1 calls)

     Called by init_run:
     wfcinit      :    220.29s CPU    222.60s WALL (       1 calls)
     potinit      :      2.11s CPU      2.15s WALL (       1 calls)
     hinit0       :      1.70s CPU      1.73s WALL (       1 calls)

     Called by electrons:
     c_bands      :   8300.75s CPU   8320.40s WALL (      13 calls)
     sum_band     :    264.17s CPU    264.65s WALL (      13 calls)
     v_of_rho     :      3.36s CPU      3.49s WALL (      13 calls)
     mix_rho      :      0.75s CPU      0.76s WALL (      13 calls)

     Called by c_bands:
     init_us_2    :     31.43s CPU     31.96s WALL (      28 calls)
     cegterg      :   8098.10s CPU   8116.35s WALL (      13 calls)

     Called by *egterg:
     cdiaghg      :    779.08s CPU    779.81s WALL (     108 calls)
     h_psi        :   4796.74s CPU   4806.72s WALL (     110 calls)
     g_psi        :      4.11s CPU      4.12s WALL (      96 calls)

     Called by h_psi:
     h_psi:calbec :    841.64s CPU    841.70s WALL (     110 calls)
     vloc_psi     :    671.88s CPU    673.31s WALL (     110 calls)
     add_vuspsi   :    821.64s CPU    824.24s WALL (     110 calls)
     vhpsi        :   2453.08s CPU   2453.27s WALL (     110 calls)

     General routines
     calbec       :   1073.12s CPU   1073.20s WALL (     234 calls)
     fft          :      3.08s CPU      3.20s WALL (     131 calls)
     ffts         :      0.19s CPU      0.19s WALL (      13 calls)
     fftw         :    683.51s CPU    684.99s WALL (  161866 calls)

     Parallel routines

     Hubbard U routines
     new_ns       :     59.82s CPU     59.84s WALL (      13 calls)
     vhpsi        :   2453.08s CPU   2453.27s WALL (     110 calls)

     PWSCF        :      2h27m CPU      2h28m WALL


   This run was terminated on:  19:28: 9  16Jun2025            

=------------------------------------------------------------------------------=
   JOB DONE.
=------------------------------------------------------------------------------=
