
     Program PWSCF v.7.3.1 starts on 15May2025 at 20:50:18 

     This program is part of the open-source Quantum ESPRESSO suite
     for quantum simulation of materials; please cite
         "P. Giannozzi et al., J. Phys.:Condens. Matter 21 395502 (2009);
         "P. Giannozzi et al., J. Phys.:Condens. Matter 29 465901 (2017);
         "P. Giannozzi et al., J. Chem. Phys. 152 154105 (2020);
          URL http://www.quantum-espresso.org", 
     in publications or presentations arising from this work. More details at
     http://www.quantum-espresso.org/quote

     Parallel version (MPI), running on   512 processors

     MPI processes distributed on     4 nodes
     430793 MiB available memory on the printing compute node when the environment starts

     Reading input from In0.0Ga1.0As0.5Sb0.5_cube_3x3x3.2.scf.in
Warning: card &CELL ignored
Warning: card   CELL_DOFREE = 'ALL', ignored
Warning: card / ignored

     Current dimensions of program PWSCF are:
     Max number of different atomic species (ntypx) = 10
     Max number of k-points (npk) =  40000
     Max angular momentum in pseudopotentials (lmaxx) =  4

     K-points division:     npool     =       8
     R & G space division:  proc/nbgrp/npool/nimage =      64
     Subspace diagonalization in iterative solution of the eigenvalue problem:
     one sub-group per band group will be used
     custom distributed-memory algorithm (size of sub-group:  8*  8 procs)


     Parallelization info
     --------------------
     sticks:   dense  smooth     PW     G-vecs:    dense   smooth      PW
     Min         667     667    172               103791   103791   13562
     Max         669     669    173               103796   103796   13568
     Sum       42721   42721  11009              6642657  6642657  868215

     Using Slab Decomposition



     bravais-lattice index     =            1
     lattice parameter (alat)  =      33.4456  a.u.
     unit-cell volume          =   37412.5328 (a.u.)^3
     number of atoms/cell      =          216
     number of atomic types    =            4
     number of electrons       =      3024.00
     number of Kohn-Sham states=         2160
     kinetic-energy cutoff     =     120.0000  Ry
     charge density cutoff     =     480.0000  Ry
     scf convergence threshold =      1.0E-05
     mixing beta               =       0.6500
     number of iterations used =            8  plain     mixing
     Exchange-correlation= PBE
                           (   1   4   3   4   0   0   0)
     Hubbard projectors: atomic
     Hubbard parameters of DFT+U (Dudarev formulation) in eV:
     U(As-4p) =  5.8400
     U(Ga-4p) = -2.8000
     U(In-5p) = -1.0150
     U(Sb-5p) =  4.8900

     Internal variables: lda_plus_u =T, lda_plus_u_kind = 0

     celldm(1)=  33.445603  celldm(2)=   0.000000  celldm(3)=   0.000000
     celldm(4)=   0.000000  celldm(5)=   0.000000  celldm(6)=   0.000000

     crystal axes: (cart. coord. in units of alat)
               a(1) = (   1.000000   0.000000   0.000000 )  
               a(2) = (   0.000000   1.000000   0.000000 )  
               a(3) = (   0.000000   0.000000   1.000000 )  

     reciprocal axes: (cart. coord. in units 2 pi/alat)
               b(1) = (  1.000000  0.000000  0.000000 )  
               b(2) = (  0.000000  1.000000  0.000000 )  
               b(3) = (  0.000000  0.000000  1.000000 )  


     PseudoPot. # 1 for As read from file:
     /work/i254/i254/gentles/data/pseudos/As.pbe.NC-SR.standard.v0.5.UPF
     MD5 check sum: bfe1a874457ce592347346129958e7cf
     Pseudo is Norm-conserving + core correction, Zval = 15.0
     Generated using ONCVPSP code by D. R. Hamann
     Using radial grid of 1358 points,  6 beta functions with: 
                l(1) =   0
                l(2) =   0
                l(3) =   1
                l(4) =   1
                l(5) =   2
                l(6) =   2

     PseudoPot. # 2 for Ga read from file:
     /work/i254/i254/gentles/data/pseudos/Ga.pbe.NC-SR.standard.v0.5.UPF
     MD5 check sum: 2bb81bf6f0a8d9832cf3329850435ecf
     Pseudo is Norm-conserving + core correction, Zval = 13.0
     Generated using ONCVPSP code by D. R. Hamann
     Using radial grid of 1902 points,  6 beta functions with: 
                l(1) =   0
                l(2) =   0
                l(3) =   1
                l(4) =   1
                l(5) =   2
                l(6) =   2

     PseudoPot. # 3 for In read from file:
     /work/i254/i254/gentles/data/pseudos/In.pbe.NC-SR.standard.v0.5.UPF
     MD5 check sum: 835f4bf908c982ff75c88e16816a8d7f
     Pseudo is Norm-conserving + core correction, Zval = 13.0
     Generated using ONCVPSP code by D. R. Hamann
     Using radial grid of 1964 points,  6 beta functions with: 
                l(1) =   0
                l(2) =   0
                l(3) =   1
                l(4) =   1
                l(5) =   2
                l(6) =   2

     PseudoPot. # 4 for Sb read from file:
     /work/i254/i254/gentles/data/pseudos/Sb.pbe.NC-SR.standard.v0.5.UPF
     MD5 check sum: 127f69b6101c45666faeae1b5d611565
     Pseudo is Norm-conserving + core correction, Zval = 15.0
     Generated using ONCVPSP code by D. R. Hamann
     Using radial grid of 1434 points,  6 beta functions with: 
                l(1) =   0
                l(2) =   0
                l(3) =   1
                l(4) =   1
                l(5) =   2
                l(6) =   2

     atomic species   valence    mass     pseudopotential
     As               15.00    74.92160     As( 1.00)
     Ga               13.00    69.72300     Ga( 1.00)
     In               13.00   114.81800     In( 1.00)
     Sb               15.00   121.76000     Sb( 1.00)

     No symmetry found



   Cartesian axes

     site n.     atom                  positions (alat units)
         1        Ga     tau(   1) = (   0.0020750   0.0104380   0.0002490  )
         2        Ga     tau(   2) = (   0.0105070   0.1661980   0.1663080  )
         3        Ga     tau(   3) = (   0.1663530  -0.0034650   0.1577270  )
         4        Ga     tau(   4) = (   0.1719170   0.1637650   0.0042500  )
         5        As     tau(   5) = (   0.0873500   0.0841880   0.0827930  )
         6        As     tau(   6) = (   0.0844360   0.2516610   0.2473190  )
         7        Sb     tau(   7) = (   0.2466310   0.0824810   0.2476110  )
         8        As     tau(   8) = (   0.2491880   0.2527080   0.0841500  )
         9        Ga     tau(   9) = (   0.0006900   0.0015640   0.3421880  )
        10        Ga     tau(  10) = (   0.0042960   0.1624150   0.5037630  )
        11        Ga     tau(  11) = (   0.1627370  -0.0019900   0.4954280  )
        12        Ga     tau(  12) = (   0.1573630   0.1661320   0.3328840  )
        13        As     tau(  13) = (   0.0823410   0.0834060   0.4187560  )
        14        As     tau(  14) = (   0.0807280   0.2498320   0.5830110  )
        15        Sb     tau(  15) = (   0.2475400   0.0846960   0.5834640  )
        16        Sb     tau(  16) = (   0.2475880   0.2499250   0.4161030  )
        17        Ga     tau(  17) = (  -0.0013390  -0.0046320   0.6603180  )
        18        Ga     tau(  18) = (  -0.0024110   0.1633270   0.8365790  )
        19        Ga     tau(  19) = (   0.1739540  -0.0005560   0.8333910  )
        20        Ga     tau(  20) = (   0.1640780   0.1768710   0.6672850  )
        21        Sb     tau(  21) = (   0.0839490   0.0820000   0.7481290  )
        22        Sb     tau(  22) = (   0.0876870   0.2504130   0.9192850  )
        23        As     tau(  23) = (   0.2501110   0.0816870   0.9203160  )
        24        As     tau(  24) = (   0.2500210   0.2500010   0.7501100  )
        25        Ga     tau(  25) = (   0.0080090   0.3400230   0.0085420  )
        26        Ga     tau(  26) = (   0.0016400   0.5015560   0.1690100  )
        27        Ga     tau(  27) = (   0.1670820   0.3339970   0.1677960  )
        28        Ga     tau(  28) = (   0.1662090   0.5016510   0.0038490  )
        29        As     tau(  29) = (   0.0869550   0.4208900   0.0891740  )
        30        As     tau(  30) = (   0.0857390   0.5813260   0.2510800  )
        31        As     tau(  31) = (   0.2470300   0.4193470   0.2458950  )
        32        As     tau(  32) = (   0.2492350   0.5822410   0.0836880  )
        33        Ga     tau(  33) = (  -0.0007970   0.3335760   0.3226780  )
        34        Ga     tau(  34) = (  -0.0094890   0.4979360   0.4956510  )
        35        Ga     tau(  35) = (   0.1599600   0.3302180   0.5026120  )
        36        Ga     tau(  36) = (   0.1705380   0.5035070   0.3296450  )
        37        Sb     tau(  37) = (   0.0819450   0.4168780   0.4119950  )
        38        Sb     tau(  38) = (   0.0837530   0.5823300   0.5771870  )
        39        Sb     tau(  39) = (   0.2521430   0.4151680   0.5820030  )
        40        As     tau(  40) = (   0.2484150   0.5867200   0.4131580  )
        41        Ga     tau(  41) = (  -0.0012550   0.3337280   0.6576410  )
        42        Ga     tau(  42) = (   0.0080390   0.5037020   0.8383610  )
        43        Ga     tau(  43) = (   0.1770190   0.3346040   0.8340610  )
        44        Ga     tau(  44) = (   0.1685510   0.5004020   0.6674440  )
        45        Sb     tau(  45) = (   0.0847220   0.4141850   0.7496760  )
        46        As     tau(  46) = (   0.0851660   0.5830050   0.9223820  )
        47        As     tau(  47) = (   0.2487280   0.4201300   0.9214600  )
        48        Sb     tau(  48) = (   0.2519810   0.5860020   0.7541410  )
        49        Ga     tau(  49) = (  -0.0017490   0.6623560  -0.0012110  )
        50        Ga     tau(  50) = (   0.0020170   0.8308440   0.1681970  )
        51        Ga     tau(  51) = (   0.1699340   0.6601990   0.1706180  )
        52        Ga     tau(  52) = (   0.1752720   0.8324730   0.0004890  )
        53        Sb     tau(  53) = (   0.0874470   0.7459680   0.0830470  )
        54        Sb     tau(  54) = (   0.0852440   0.9171420   0.2527730  )
        55        As     tau(  55) = (   0.2486480   0.7478680   0.2477820  )
        56        As     tau(  56) = (   0.2509790   0.9151090   0.0821930  )
        57        Ga     tau(  57) = (   0.0065860   0.6604820   0.3362870  )
        58        Ga     tau(  58) = (   0.0067330   0.8358140   0.4950220  )
        59        Ga     tau(  59) = (   0.1692780   0.6711040   0.4940580  )
        60        Ga     tau(  60) = (   0.1701720   0.8272770   0.3334060  )
        61        As     tau(  61) = (   0.0857120   0.7492580   0.4139810  )
        62        As     tau(  62) = (   0.0844650   0.9164460   0.5792820  )
        63        As     tau(  63) = (   0.2486450   0.7508450   0.5802980  )
        64        As     tau(  64) = (   0.2443870   0.9130230   0.4173270  )
        65        Ga     tau(  65) = (   0.0032020   0.6683550   0.6651370  )
        66        Ga     tau(  66) = (  -0.0066740   0.8348480   0.8358030  )
        67        Ga     tau(  67) = (   0.1669170   0.6678820   0.8457090  )
        68        Ga     tau(  68) = (   0.1689300   0.8371950   0.6617760  )
        69        Sb     tau(  69) = (   0.0855760   0.7530400   0.7534100  )
        70        Sb     tau(  70) = (   0.0847680   0.9182410   0.9182150  )
        71        As     tau(  71) = (   0.2517340   0.7480210   0.9209060  )
        72        As     tau(  72) = (   0.2471680   0.9145330   0.7498620  )
        73        Ga     tau(  73) = (   0.3304430   0.0021890   0.0054440  )
        74        Ga     tau(  74) = (   0.3322830   0.1694440   0.1611950  )
        75        Ga     tau(  75) = (   0.4984790   0.0095160   0.1695770  )
        76        Ga     tau(  76) = (   0.4926390   0.1622030   0.0047310  )
        77        As     tau(  77) = (   0.4127230   0.0834720   0.0857230  )
        78        Sb     tau(  78) = (   0.4171050   0.2535260   0.2481990  )
        79        As     tau(  79) = (   0.5846280   0.0873440   0.2523540  )
        80        Sb     tau(  80) = (   0.5813930   0.2507840   0.0849770  )
        81        Ga     tau(  81) = (   0.3262760  -0.0061010   0.3385620  )
        82        Ga     tau(  82) = (   0.3393980   0.1712460   0.5039240  )
        83        Ga     tau(  83) = (   0.5036140   0.0053190   0.5049010  )
        84        Ga     tau(  84) = (   0.5084910   0.1706700   0.3333060  )
        85        Sb     tau(  85) = (   0.4183220   0.0846200   0.4151730  )
        86        As     tau(  86) = (   0.4212450   0.2501580   0.5845120  )
        87        As     tau(  87) = (   0.5850650   0.0890170   0.5818340  )
        88        As     tau(  88) = (   0.5867200   0.2499620   0.4187500  )
        89        Ga     tau(  89) = (   0.3279410  -0.0045560   0.6720080  )
        90        Ga     tau(  90) = (   0.3232610   0.1664600   0.8355520  )
        91        Ga     tau(  91) = (   0.4969180  -0.0007800   0.8324170  )
        92        Ga     tau(  92) = (   0.5041190   0.1699910   0.6626780  )
        93        Sb     tau(  93) = (   0.4138620   0.0869730   0.7490330  )
        94        Sb     tau(  94) = (   0.4121150   0.2518480   0.9174940  )
        95        Sb     tau(  95) = (   0.5832460   0.0852970   0.9157240  )
        96        As     tau(  96) = (   0.5850110   0.2501010   0.7449360  )
        97        Ga     tau(  97) = (   0.3278150   0.3393600   0.0041030  )
        98        Ga     tau(  98) = (   0.3278980   0.4969760   0.1617170  )
        99        Ga     tau(  99) = (   0.4946790   0.3435830   0.1612790  )
       100        Ga     tau( 100) = (   0.4948680   0.5044610   0.0065460  )
       101        As     tau( 101) = (   0.4113790   0.4208690   0.0819160  )
       102        Sb     tau( 102) = (   0.4142810   0.5826040   0.2474780  )
       103        Sb     tau( 103) = (   0.5850810   0.4188720   0.2519840  )
       104        As     tau( 104) = (   0.5796990   0.5864110   0.0849540  )
       105        Ga     tau( 105) = (   0.3262360   0.3398560   0.3274870  )
       106        Ga     tau( 106) = (   0.3318940   0.5091220   0.4965060  )
       107        Ga     tau( 107) = (   0.5026510   0.3289180   0.5017800  )
       108        Ga     tau( 108) = (   0.5032430   0.5054090   0.3380850  )
       109        Sb     tau( 109) = (   0.4159970   0.4172090   0.4171300  )
       110        As     tau( 110) = (   0.4164600   0.5842390   0.5782950  )
       111        As     tau( 111) = (   0.5823020   0.4141700   0.5779500  )
       112        As     tau( 112) = (   0.5855490   0.5833080   0.4168750  )
       113        Ga     tau( 113) = (   0.3351910   0.3246660   0.6670080  )
       114        Ga     tau( 114) = (   0.3346430   0.5006210   0.8446760  )
       115        Ga     tau( 115) = (   0.5049280   0.3286230   0.8280650  )
       116        Ga     tau( 116) = (   0.4971670   0.4983400   0.6553820  )
       117        Sb     tau( 117) = (   0.4161610   0.4163630   0.7499420  )
       118        As     tau( 118) = (   0.4146090   0.5835850   0.9245090  )
       119        Sb     tau( 119) = (   0.5819910   0.4167950   0.9193350  )
       120        Sb     tau( 120) = (   0.5785830   0.5842350   0.7475870  )
       121        Ga     tau( 121) = (   0.3318680   0.6650480   0.0034310  )
       122        Ga     tau( 122) = (   0.3285440   0.8284390   0.1621900  )
       123        Ga     tau( 123) = (   0.4993970   0.6696890   0.1630560  )
       124        Ga     tau( 124) = (   0.4942430   0.8250520   0.0021780  )
       125        As     tau( 125) = (   0.4124560   0.7467580   0.0836610  )
       126        Sb     tau( 126) = (   0.4144420   0.9147850   0.2485230  )
       127        As     tau( 127) = (   0.5842190   0.7436560   0.2470210  )
       128        Sb     tau( 128) = (   0.5805450   0.9135830   0.0871620  )
       129        Ga     tau( 129) = (   0.3261880   0.6668590   0.3303830  )
       130        Ga     tau( 130) = (   0.3257180   0.8339600   0.4983300  )
       131        Ga     tau( 131) = (   0.5038190   0.6618840   0.5006550  )
       132        Ga     tau( 132) = (   0.5052860   0.8274420   0.3270200  )
       133        Sb     tau( 133) = (   0.4161750   0.7480160   0.4155480  )
       134        Sb     tau( 134) = (   0.4149400   0.9157170   0.5834640  )
       135        As     tau( 135) = (   0.5823570   0.7456930   0.5807880  )
       136        Sb     tau( 136) = (   0.5840820   0.9167090   0.4168540  )
       137        Ga     tau( 137) = (   0.3335420   0.6668410   0.6574860  )
       138        Ga     tau( 138) = (   0.3224440   0.8306390   0.8320200  )
       139        Ga     tau( 139) = (   0.4961830   0.6638730   0.8440870  )
       140        Ga     tau( 140) = (   0.5025930   0.8255980   0.6614880  )
       141        Sb     tau( 141) = (   0.4147570   0.7473730   0.7511060  )
       142        Sb     tau( 142) = (   0.4108580   0.9142070   0.9178020  )
       143        As     tau( 143) = (   0.5784460   0.7470220   0.9222630  )
       144        Sb     tau( 144) = (   0.5822940   0.9148560   0.7471410  )
       145        Ga     tau( 145) = (   0.6675900  -0.0012140   0.0017200  )
       146        Ga     tau( 146) = (   0.6664360   0.1713770   0.1771500  )
       147        Ga     tau( 147) = (   0.8358720  -0.0000370   0.1656220  )
       148        Ga     tau( 148) = (   0.8335930   0.1679770  -0.0078930  )
       149        Sb     tau( 149) = (   0.7498630   0.0884690   0.0851830  )
       150        As     tau( 150) = (   0.7493880   0.2514050   0.2564680  )
       151        Sb     tau( 151) = (   0.9191320   0.0855780   0.2525960  )
       152        Sb     tau( 152) = (   0.9182300   0.2504580   0.0853910  )
       153        Ga     tau( 153) = (   0.6667450   0.0083460   0.3347330  )
       154        Ga     tau( 154) = (   0.6682540   0.1675560   0.4983390  )
       155        Ga     tau( 155) = (   0.8379490   0.0046150   0.4936570  )
       156        Ga     tau( 156) = (   0.8263460   0.1679750   0.3356900  )
       157        As     tau( 157) = (   0.7497110   0.0855580   0.4169650  )
       158        As     tau( 158) = (   0.7481740   0.2509080   0.5779560  )
       159        As     tau( 159) = (   0.9183310   0.0814480   0.5792880  )
       160        Sb     tau( 160) = (   0.9174390   0.2510740   0.4179000  )
       161        Ga     tau( 161) = (   0.6629230   0.0067560   0.6625970  )
       162        Ga     tau( 162) = (   0.6675620   0.1757190   0.8307240  )
       163        Ga     tau( 163) = (   0.8425700   0.0000400   0.8323830  )
       164        Ga     tau( 164) = (   0.8335240   0.1668810   0.6535200  )
       165        Sb     tau( 165) = (   0.7529630   0.0862600   0.7483520  )
       166        As     tau( 166) = (   0.7508050   0.2496820   0.9148610  )
       167        As     tau( 167) = (   0.9169540   0.0842810   0.9168780  )
       168        Sb     tau( 168) = (   0.9158960   0.2484240   0.7458570  )
       169        Ga     tau( 169) = (   0.6722850   0.3287540  -0.0025080  )
       170        Ga     tau( 170) = (   0.6647680   0.5085740   0.1664310  )
       171        Ga     tau( 171) = (   0.8328730   0.3330600   0.1776260  )
       172        Ga     tau( 172) = (   0.8398420   0.5038400   0.0085600  )
       173        Sb     tau( 173) = (   0.7506560   0.4168620   0.0874590  )
       174        As     tau( 174) = (   0.7498410   0.5812260   0.2491870  )
       175        As     tau( 175) = (   0.9166300   0.4193140   0.2492830  )
       176        As     tau( 176) = (   0.9199310   0.5845300   0.0876730  )
       177        Ga     tau( 177) = (   0.6707330   0.3308560   0.3387760  )
       178        Ga     tau( 178) = (   0.6631800   0.4940120   0.4929950  )
       179        Ga     tau( 179) = (   0.8287460   0.3379800   0.5012030  )
       180        Ga     tau( 180) = (   0.8330210   0.4992490   0.3310690  )
       181        As     tau( 181) = (   0.7508160   0.4172150   0.4146990  )
       182        Sb     tau( 182) = (   0.7501630   0.5783060   0.5792650  )
       183        As     tau( 183) = (   0.9153170   0.4152120   0.5796560  )
       184        As     tau( 184) = (   0.9171350   0.5800060   0.4114120  )
       185        Ga     tau( 185) = (   0.6624300   0.3294120   0.6590990  )
       186        Ga     tau( 186) = (   0.6666320   0.5012330   0.8324320  )
       187        Ga     tau( 187) = (   0.8312570   0.3296350   0.8366380  )
       188        Ga     tau( 188) = (   0.8386560   0.4939230   0.6636450  )
       189        Sb     tau( 189) = (   0.7484520   0.4125010   0.7473450  )
       190        Sb     tau( 190) = (   0.7500590   0.5855980   0.9220000  )
       191        Sb     tau( 191) = (   0.9197290   0.4178820   0.9195450  )
       192        Sb     tau( 192) = (   0.9195730   0.5828970   0.7508670  )
       193        Ga     tau( 193) = (   0.6601880   0.6690170   0.0055800  )
       194        Ga     tau( 194) = (   0.6686660   0.8234400   0.1693790  )
       195        Ga     tau( 195) = (   0.8297800   0.6610370   0.1660310  )
       196        Ga     tau( 196) = (   0.8335650   0.8208340   0.0022930  )
       197        As     tau( 197) = (   0.7488430   0.7439970   0.0856020  )
       198        Sb     tau( 198) = (   0.7502750   0.9172580   0.2521370  )
       199        Sb     tau( 199) = (   0.9167610   0.7457610   0.2531210  )
       200        Sb     tau( 200) = (   0.9191630   0.9149120   0.0800040  )
       201        Ga     tau( 201) = (   0.6642110   0.6607110   0.3279020  )
       202        Ga     tau( 202) = (   0.6639340   0.8269840   0.5033600  )
       203        Ga     tau( 203) = (   0.8381050   0.6604820   0.4925130  )
       204        Ga     tau( 204) = (   0.8401470   0.8393700   0.3399550  )
       205        Sb     tau( 205) = (   0.7496790   0.7475220   0.4135440  )
       206        Sb     tau( 206) = (   0.7506330   0.9206580   0.5804230  )
       207        Sb     tau( 207) = (   0.9175750   0.7529160   0.5800000  )
       208        As     tau( 208) = (   0.9214700   0.9190880   0.4196860  )
       209        Ga     tau( 209) = (   0.6647660   0.6690630   0.6613480  )
       210        Ga     tau( 210) = (   0.6591580   0.8280600   0.8396590  )
       211        Ga     tau( 211) = (   0.8372140   0.6699570   0.8377130  )
       212        Ga     tau( 212) = (   0.8366560   0.8415030   0.6707580  )
       213        Sb     tau( 213) = (   0.7495790   0.7516370   0.7508120  )
       214        Sb     tau( 214) = (   0.7534990   0.9125260   0.9171000  )
       215        As     tau( 215) = (   0.9183220   0.7473950   0.9187710  )
       216        As     tau( 216) = (   0.9203320   0.9187590   0.7498480  )

     number of k points=     8
                       cart. coord. in units 2pi/alat
        k(    1) = (   0.0000000   0.0000000   0.0000000), wk =   0.2500000
        k(    2) = (   0.0000000   0.0000000  -0.5000000), wk =   0.2500000
        k(    3) = (   0.0000000  -0.5000000  -0.5000000), wk =   0.2500000
        k(    4) = (  -0.5000000  -0.5000000  -0.5000000), wk =   0.2500000
        k(    5) = (  -0.5000000   0.0000000   0.0000000), wk =   0.2500000
        k(    6) = (   0.0000000  -0.5000000   0.0000000), wk =   0.2500000
        k(    7) = (  -0.5000000   0.0000000   0.5000000), wk =   0.2500000
        k(    8) = (  -0.5000000   0.5000000   0.0000000), wk =   0.2500000

     Dense  grid:  6642657 G-vectors     FFT dimensions: ( 240, 240, 240)

     Estimated max dynamical RAM per process >       3.18 GB

     Estimated total dynamical RAM >    1615.66 GB

     Initial potential from superposition of free atoms

     starting charge    3023.6679, renormalised to    3024.0000

     STARTING HUBBARD OCCUPATIONS:

     =================== HUBBARD OCCUPATIONS ===================
     ------------------------ ATOM    1 ------------------------
     Tr[ns(  1)] =   1.00000
     eigenvalues:
       0.167  0.167  0.167
     eigenvectors (columns):
       1.000  0.000  0.000
       0.000  1.000  0.000
       0.000  0.000  1.000
     occupation matrix ns (before diag.):
       0.167  0.000  0.000
       0.000  0.167  0.000
       0.000  0.000  0.167
     ------------------------ ATOM    2 ------------------------
     Tr[ns(  2)] =   1.00000
     eigenvalues:
       0.167  0.167  0.167
     eigenvectors (columns):
       1.000  0.000  0.000
       0.000  1.000  0.000
       0.000  0.000  1.000
     occupation matrix ns (before diag.):
       0.167  0.000  0.000
       0.000  0.167  0.000
       0.000  0.000  0.167
     ------------------------ ATOM    3 ------------------------
     Tr[ns(  3)] =   1.00000
     eigenvalues:
       0.167  0.167  0.167
     eigenvectors (columns):
       1.000  0.000  0.000
       0.000  1.000  0.000
       0.000  0.000  1.000
     occupation matrix ns (before diag.):
       0.167  0.000  0.000
       0.000  0.167  0.000
       0.000  0.000  0.167
     ------------------------ ATOM    4 ------------------------
     Tr[ns(  4)] =   1.00000
     eigenvalues:
       0.167  0.167  0.167
     eigenvectors (columns):
       1.000  0.000  0.000
       0.000  1.000  0.000
       0.000  0.000  1.000
     occupation matrix ns (before diag.):
       0.167  0.000  0.000
       0.000  0.167  0.000
       0.000  0.000  0.167
     ------------------------ ATOM    5 ------------------------
     Tr[ns(  5)] =   3.00000
     eigenvalues:
       0.500  0.500  0.500
     eigenvectors (columns):
       1.000  0.000  0.000
       0.000  1.000  0.000
       0.000  0.000  1.000
     occupation matrix ns (before diag.):
       0.500  0.000  0.000
       0.000  0.500  0.000
       0.000  0.000  0.500
     ------------------------ ATOM    6 ------------------------
     Tr[ns(  6)] =   3.00000
     eigenvalues:
       0.500  0.500  0.500
     eigenvectors (columns):
       1.000  0.000  0.000
       0.000  1.000  0.000
       0.000  0.000  1.000
     occupation matrix ns (before diag.):
       0.500  0.000  0.000
       0.000  0.500  0.000
       0.000  0.000  0.500
     ------------------------ ATOM    7 ------------------------
     Tr[ns(  7)] =   3.00000
     eigenvalues:
       0.500  0.500  0.500
     eigenvectors (columns):
       1.000  0.000  0.000
       0.000  1.000  0.000
       0.000  0.000  1.000
     occupation matrix ns (before diag.):
       0.500  0.000  0.000
       0.000  0.500  0.000
       0.000  0.000  0.500
     ------------------------ ATOM    8 ------------------------
     Tr[ns(  8)] =   3.00000
     eigenvalues:
       0.500  0.500  0.500
     eigenvectors (columns):
       1.000  0.000  0.000
       0.000  1.000  0.000
       0.000  0.000  1.000
     occupation matrix ns (before diag.):
       0.500  0.000  0.000
       0.000  0.500  0.000
       0.000  0.000  0.500
     ------------------------ ATOM    9 ------------------------
     Tr[ns(  9)] =   1.00000
     eigenvalues:
       0.167  0.167  0.167
     eigenvectors (columns):
       1.000  0.000  0.000
       0.000  1.000  0.000
       0.000  0.000  1.000
     occupation matrix ns (before diag.):
       0.167  0.000  0.000
       0.000  0.167  0.000
       0.000  0.000  0.167
     ------------------------ ATOM   10 ------------------------
     Tr[ns( 10)] =   1.00000
     eigenvalues:
       0.167  0.167  0.167
     eigenvectors (columns):
       1.000  0.000  0.000
       0.000  1.000  0.000
       0.000  0.000  1.000
     occupation matrix ns (before diag.):
       0.167  0.000  0.000
       0.000  0.167  0.000
       0.000  0.000  0.167
     ------------------------ ATOM   11 ------------------------
     Tr[ns( 11)] =   1.00000
     eigenvalues:
       0.167  0.167  0.167
     eigenvectors (columns):
       1.000  0.000  0.000
       0.000  1.000  0.000
       0.000  0.000  1.000
     occupation matrix ns (before diag.):
       0.167  0.000  0.000
       0.000  0.167  0.000
       0.000  0.000  0.167
     ------------------------ ATOM   12 ------------------------
     Tr[ns( 12)] =   1.00000
     eigenvalues:
       0.167  0.167  0.167
     eigenvectors (columns):
       1.000  0.000  0.000
       0.000  1.000  0.000
       0.000  0.000  1.000
     occupation matrix ns (before diag.):
       0.167  0.000  0.000
       0.000  0.167  0.000
       0.000  0.000  0.167
     ------------------------ ATOM   13 ------------------------
     Tr[ns( 13)] =   3.00000
     eigenvalues:
       0.500  0.500  0.500
     eigenvectors (columns):
       1.000  0.000  0.000
       0.000  1.000  0.000
       0.000  0.000  1.000
     occupation matrix ns (before diag.):
       0.500  0.000  0.000
       0.000  0.500  0.000
       0.000  0.000  0.500
     ------------------------ ATOM   14 ------------------------
     Tr[ns( 14)] =   3.00000
     eigenvalues:
       0.500  0.500  0.500
     eigenvectors (columns):
       1.000  0.000  0.000
       0.000  1.000  0.000
       0.000  0.000  1.000
     occupation matrix ns (before diag.):
       0.500  0.000  0.000
       0.000  0.500  0.000
       0.000  0.000  0.500
     ------------------------ ATOM   15 ------------------------
     Tr[ns( 15)] =   3.00000
     eigenvalues:
       0.500  0.500  0.500
     eigenvectors (columns):
       1.000  0.000  0.000
       0.000  1.000  0.000
       0.000  0.000  1.000
     occupation matrix ns (before diag.):
       0.500  0.000  0.000
       0.000  0.500  0.000
       0.000  0.000  0.500
     ------------------------ ATOM   16 ------------------------
     Tr[ns( 16)] =   3.00000
     eigenvalues:
       0.500  0.500  0.500
     eigenvectors (columns):
       1.000  0.000  0.000
       0.000  1.000  0.000
       0.000  0.000  1.000
     occupation matrix ns (before diag.):
       0.500  0.000  0.000
       0.000  0.500  0.000
       0.000  0.000  0.500
     ------------------------ ATOM   17 ------------------------
     Tr[ns( 17)] =   1.00000
     eigenvalues:
       0.167  0.167  0.167
     eigenvectors (columns):
       1.000  0.000  0.000
       0.000  1.000  0.000
       0.000  0.000  1.000
     occupation matrix ns (before diag.):
       0.167  0.000  0.000
       0.000  0.167  0.000
       0.000  0.000  0.167
     ------------------------ ATOM   18 ------------------------
     Tr[ns( 18)] =   1.00000
     eigenvalues:
       0.167  0.167  0.167
     eigenvectors (columns):
       1.000  0.000  0.000
       0.000  1.000  0.000
       0.000  0.000  1.000
     occupation matrix ns (before diag.):
       0.167  0.000  0.000
       0.000  0.167  0.000
       0.000  0.000  0.167
     ------------------------ ATOM   19 ------------------------
     Tr[ns( 19)] =   1.00000
     eigenvalues:
       0.167  0.167  0.167
     eigenvectors (columns):
       1.000  0.000  0.000
       0.000  1.000  0.000
       0.000  0.000  1.000
     occupation matrix ns (before diag.):
       0.167  0.000  0.000
       0.000  0.167  0.000
       0.000  0.000  0.167
     ------------------------ ATOM   20 ------------------------
     Tr[ns( 20)] =   1.00000
     eigenvalues:
       0.167  0.167  0.167
     eigenvectors (columns):
       1.000  0.000  0.000
       0.000  1.000  0.000
       0.000  0.000  1.000
     occupation matrix ns (before diag.):
       0.167  0.000  0.000
       0.000  0.167  0.000
       0.000  0.000  0.167
     ------------------------ ATOM   21 ------------------------
     Tr[ns( 21)] =   3.00000
     eigenvalues:
       0.500  0.500  0.500
     eigenvectors (columns):
       1.000  0.000  0.000
       0.000  1.000  0.000
       0.000  0.000  1.000
     occupation matrix ns (before diag.):
       0.500  0.000  0.000
       0.000  0.500  0.000
       0.000  0.000  0.500
     ------------------------ ATOM   22 ------------------------
     Tr[ns( 22)] =   3.00000
     eigenvalues:
       0.500  0.500  0.500
     eigenvectors (columns):
       1.000  0.000  0.000
       0.000  1.000  0.000
       0.000  0.000  1.000
     occupation matrix ns (before diag.):
       0.500  0.000  0.000
       0.000  0.500  0.000
       0.000  0.000  0.500
     ------------------------ ATOM   23 ------------------------
     Tr[ns( 23)] =   3.00000
     eigenvalues:
       0.500  0.500  0.500
     eigenvectors (columns):
       1.000  0.000  0.000
       0.000  1.000  0.000
       0.000  0.000  1.000
     occupation matrix ns (before diag.):
       0.500  0.000  0.000
       0.000  0.500  0.000
       0.000  0.000  0.500
     ------------------------ ATOM   24 ------------------------
     Tr[ns( 24)] =   3.00000
     eigenvalues:
       0.500  0.500  0.500
     eigenvectors (columns):
       1.000  0.000  0.000
       0.000  1.000  0.000
       0.000  0.000  1.000
     occupation matrix ns (before diag.):
       0.500  0.000  0.000
       0.000  0.500  0.000
       0.000  0.000  0.500
     ------------------------ ATOM   25 ------------------------
     Tr[ns( 25)] =   1.00000
     eigenvalues:
       0.167  0.167  0.167
     eigenvectors (columns):
       1.000  0.000  0.000
       0.000  1.000  0.000
       0.000  0.000  1.000
     occupation matrix ns (before diag.):
       0.167  0.000  0.000
       0.000  0.167  0.000
       0.000  0.000  0.167
     ------------------------ ATOM   26 ------------------------
     Tr[ns( 26)] =   1.00000
     eigenvalues:
       0.167  0.167  0.167
     eigenvectors (columns):
       1.000  0.000  0.000
       0.000  1.000  0.000
       0.000  0.000  1.000
     occupation matrix ns (before diag.):
       0.167  0.000  0.000
       0.000  0.167  0.000
       0.000  0.000  0.167
     ------------------------ ATOM   27 ------------------------
     Tr[ns( 27)] =   1.00000
     eigenvalues:
       0.167  0.167  0.167
     eigenvectors (columns):
       1.000  0.000  0.000
       0.000  1.000  0.000
       0.000  0.000  1.000
     occupation matrix ns (before diag.):
       0.167  0.000  0.000
       0.000  0.167  0.000
       0.000  0.000  0.167
     ------------------------ ATOM   28 ------------------------
     Tr[ns( 28)] =   1.00000
     eigenvalues:
       0.167  0.167  0.167
     eigenvectors (columns):
       1.000  0.000  0.000
       0.000  1.000  0.000
       0.000  0.000  1.000
     occupation matrix ns (before diag.):
       0.167  0.000  0.000
       0.000  0.167  0.000
       0.000  0.000  0.167
     ------------------------ ATOM   29 ------------------------
     Tr[ns( 29)] =   3.00000
     eigenvalues:
       0.500  0.500  0.500
     eigenvectors (columns):
       1.000  0.000  0.000
       0.000  1.000  0.000
       0.000  0.000  1.000
     occupation matrix ns (before diag.):
       0.500  0.000  0.000
       0.000  0.500  0.000
       0.000  0.000  0.500
     ------------------------ ATOM   30 ------------------------
     Tr[ns( 30)] =   3.00000
     eigenvalues:
       0.500  0.500  0.500
     eigenvectors (columns):
       1.000  0.000  0.000
       0.000  1.000  0.000
       0.000  0.000  1.000
     occupation matrix ns (before diag.):
       0.500  0.000  0.000
       0.000  0.500  0.000
       0.000  0.000  0.500
     ------------------------ ATOM   31 ------------------------
     Tr[ns( 31)] =   3.00000
     eigenvalues:
       0.500  0.500  0.500
     eigenvectors (columns):
       1.000  0.000  0.000
       0.000  1.000  0.000
       0.000  0.000  1.000
     occupation matrix ns (before diag.):
       0.500  0.000  0.000
       0.000  0.500  0.000
       0.000  0.000  0.500
     ------------------------ ATOM   32 ------------------------
     Tr[ns( 32)] =   3.00000
     eigenvalues:
       0.500  0.500  0.500
     eigenvectors (columns):
       1.000  0.000  0.000
       0.000  1.000  0.000
       0.000  0.000  1.000
     occupation matrix ns (before diag.):
       0.500  0.000  0.000
       0.000  0.500  0.000
       0.000  0.000  0.500
     ------------------------ ATOM   33 ------------------------
     Tr[ns( 33)] =   1.00000
     eigenvalues:
       0.167  0.167  0.167
     eigenvectors (columns):
       1.000  0.000  0.000
       0.000  1.000  0.000
       0.000  0.000  1.000
     occupation matrix ns (before diag.):
       0.167  0.000  0.000
       0.000  0.167  0.000
       0.000  0.000  0.167
     ------------------------ ATOM   34 ------------------------
     Tr[ns( 34)] =   1.00000
     eigenvalues:
       0.167  0.167  0.167
     eigenvectors (columns):
       1.000  0.000  0.000
       0.000  1.000  0.000
       0.000  0.000  1.000
     occupation matrix ns (before diag.):
       0.167  0.000  0.000
       0.000  0.167  0.000
       0.000  0.000  0.167
     ------------------------ ATOM   35 ------------------------
     Tr[ns( 35)] =   1.00000
     eigenvalues:
       0.167  0.167  0.167
     eigenvectors (columns):
       1.000  0.000  0.000
       0.000  1.000  0.000
       0.000  0.000  1.000
     occupation matrix ns (before diag.):
       0.167  0.000  0.000
       0.000  0.167  0.000
       0.000  0.000  0.167
     ------------------------ ATOM   36 ------------------------
     Tr[ns( 36)] =   1.00000
     eigenvalues:
       0.167  0.167  0.167
     eigenvectors (columns):
       1.000  0.000  0.000
       0.000  1.000  0.000
       0.000  0.000  1.000
     occupation matrix ns (before diag.):
       0.167  0.000  0.000
       0.000  0.167  0.000
       0.000  0.000  0.167
     ------------------------ ATOM   37 ------------------------
     Tr[ns( 37)] =   3.00000
     eigenvalues:
       0.500  0.500  0.500
     eigenvectors (columns):
       1.000  0.000  0.000
       0.000  1.000  0.000
       0.000  0.000  1.000
     occupation matrix ns (before diag.):
       0.500  0.000  0.000
       0.000  0.500  0.000
       0.000  0.000  0.500
     ------------------------ ATOM   38 ------------------------
     Tr[ns( 38)] =   3.00000
     eigenvalues:
       0.500  0.500  0.500
     eigenvectors (columns):
       1.000  0.000  0.000
       0.000  1.000  0.000
       0.000  0.000  1.000
     occupation matrix ns (before diag.):
       0.500  0.000  0.000
       0.000  0.500  0.000
       0.000  0.000  0.500
     ------------------------ ATOM   39 ------------------------
     Tr[ns( 39)] =   3.00000
     eigenvalues:
       0.500  0.500  0.500
     eigenvectors (columns):
       1.000  0.000  0.000
       0.000  1.000  0.000
       0.000  0.000  1.000
     occupation matrix ns (before diag.):
       0.500  0.000  0.000
       0.000  0.500  0.000
       0.000  0.000  0.500
     ------------------------ ATOM   40 ------------------------
     Tr[ns( 40)] =   3.00000
     eigenvalues:
       0.500  0.500  0.500
     eigenvectors (columns):
       1.000  0.000  0.000
       0.000  1.000  0.000
       0.000  0.000  1.000
     occupation matrix ns (before diag.):
       0.500  0.000  0.000
       0.000  0.500  0.000
       0.000  0.000  0.500
     ------------------------ ATOM   41 ------------------------
     Tr[ns( 41)] =   1.00000
     eigenvalues:
       0.167  0.167  0.167
     eigenvectors (columns):
       1.000  0.000  0.000
       0.000  1.000  0.000
       0.000  0.000  1.000
     occupation matrix ns (before diag.):
       0.167  0.000  0.000
       0.000  0.167  0.000
       0.000  0.000  0.167
     ------------------------ ATOM   42 ------------------------
     Tr[ns( 42)] =   1.00000
     eigenvalues:
       0.167  0.167  0.167
     eigenvectors (columns):
       1.000  0.000  0.000
       0.000  1.000  0.000
       0.000  0.000  1.000
     occupation matrix ns (before diag.):
       0.167  0.000  0.000
       0.000  0.167  0.000
       0.000  0.000  0.167
     ------------------------ ATOM   43 ------------------------
     Tr[ns( 43)] =   1.00000
     eigenvalues:
       0.167  0.167  0.167
     eigenvectors (columns):
       1.000  0.000  0.000
       0.000  1.000  0.000
       0.000  0.000  1.000
     occupation matrix ns (before diag.):
       0.167  0.000  0.000
       0.000  0.167  0.000
       0.000  0.000  0.167
     ------------------------ ATOM   44 ------------------------
     Tr[ns( 44)] =   1.00000
     eigenvalues:
       0.167  0.167  0.167
     eigenvectors (columns):
       1.000  0.000  0.000
       0.000  1.000  0.000
       0.000  0.000  1.000
     occupation matrix ns (before diag.):
       0.167  0.000  0.000
       0.000  0.167  0.000
       0.000  0.000  0.167
     ------------------------ ATOM   45 ------------------------
     Tr[ns( 45)] =   3.00000
     eigenvalues:
       0.500  0.500  0.500
     eigenvectors (columns):
       1.000  0.000  0.000
       0.000  1.000  0.000
       0.000  0.000  1.000
     occupation matrix ns (before diag.):
       0.500  0.000  0.000
       0.000  0.500  0.000
       0.000  0.000  0.500
     ------------------------ ATOM   46 ------------------------
     Tr[ns( 46)] =   3.00000
     eigenvalues:
       0.500  0.500  0.500
     eigenvectors (columns):
       1.000  0.000  0.000
       0.000  1.000  0.000
       0.000  0.000  1.000
     occupation matrix ns (before diag.):
       0.500  0.000  0.000
       0.000  0.500  0.000
       0.000  0.000  0.500
     ------------------------ ATOM   47 ------------------------
     Tr[ns( 47)] =   3.00000
     eigenvalues:
       0.500  0.500  0.500
     eigenvectors (columns):
       1.000  0.000  0.000
       0.000  1.000  0.000
       0.000  0.000  1.000
     occupation matrix ns (before diag.):
       0.500  0.000  0.000
       0.000  0.500  0.000
       0.000  0.000  0.500
     ------------------------ ATOM   48 ------------------------
     Tr[ns( 48)] =   3.00000
     eigenvalues:
       0.500  0.500  0.500
     eigenvectors (columns):
       1.000  0.000  0.000
       0.000  1.000  0.000
       0.000  0.000  1.000
     occupation matrix ns (before diag.):
       0.500  0.000  0.000
       0.000  0.500  0.000
       0.000  0.000  0.500
     ------------------------ ATOM   49 ------------------------
     Tr[ns( 49)] =   1.00000
     eigenvalues:
       0.167  0.167  0.167
     eigenvectors (columns):
       1.000  0.000  0.000
       0.000  1.000  0.000
       0.000  0.000  1.000
     occupation matrix ns (before diag.):
       0.167  0.000  0.000
       0.000  0.167  0.000
       0.000  0.000  0.167
     ------------------------ ATOM   50 ------------------------
     Tr[ns( 50)] =   1.00000
     eigenvalues:
       0.167  0.167  0.167
     eigenvectors (columns):
       1.000  0.000  0.000
       0.000  1.000  0.000
       0.000  0.000  1.000
     occupation matrix ns (before diag.):
       0.167  0.000  0.000
       0.000  0.167  0.000
       0.000  0.000  0.167
     ------------------------ ATOM   51 ------------------------
     Tr[ns( 51)] =   1.00000
     eigenvalues:
       0.167  0.167  0.167
     eigenvectors (columns):
       1.000  0.000  0.000
       0.000  1.000  0.000
       0.000  0.000  1.000
     occupation matrix ns (before diag.):
       0.167  0.000  0.000
       0.000  0.167  0.000
       0.000  0.000  0.167
     ------------------------ ATOM   52 ------------------------
     Tr[ns( 52)] =   1.00000
     eigenvalues:
       0.167  0.167  0.167
     eigenvectors (columns):
       1.000  0.000  0.000
       0.000  1.000  0.000
       0.000  0.000  1.000
     occupation matrix ns (before diag.):
       0.167  0.000  0.000
       0.000  0.167  0.000
       0.000  0.000  0.167
     ------------------------ ATOM   53 ------------------------
     Tr[ns( 53)] =   3.00000
     eigenvalues:
       0.500  0.500  0.500
     eigenvectors (columns):
       1.000  0.000  0.000
       0.000  1.000  0.000
       0.000  0.000  1.000
     occupation matrix ns (before diag.):
       0.500  0.000  0.000
       0.000  0.500  0.000
       0.000  0.000  0.500
     ------------------------ ATOM   54 ------------------------
     Tr[ns( 54)] =   3.00000
     eigenvalues:
       0.500  0.500  0.500
     eigenvectors (columns):
       1.000  0.000  0.000
       0.000  1.000  0.000
       0.000  0.000  1.000
     occupation matrix ns (before diag.):
       0.500  0.000  0.000
       0.000  0.500  0.000
       0.000  0.000  0.500
     ------------------------ ATOM   55 ------------------------
     Tr[ns( 55)] =   3.00000
     eigenvalues:
       0.500  0.500  0.500
     eigenvectors (columns):
       1.000  0.000  0.000
       0.000  1.000  0.000
       0.000  0.000  1.000
     occupation matrix ns (before diag.):
       0.500  0.000  0.000
       0.000  0.500  0.000
       0.000  0.000  0.500
     ------------------------ ATOM   56 ------------------------
     Tr[ns( 56)] =   3.00000
     eigenvalues:
       0.500  0.500  0.500
     eigenvectors (columns):
       1.000  0.000  0.000
       0.000  1.000  0.000
       0.000  0.000  1.000
     occupation matrix ns (before diag.):
       0.500  0.000  0.000
       0.000  0.500  0.000
       0.000  0.000  0.500
     ------------------------ ATOM   57 ------------------------
     Tr[ns( 57)] =   1.00000
     eigenvalues:
       0.167  0.167  0.167
     eigenvectors (columns):
       1.000  0.000  0.000
       0.000  1.000  0.000
       0.000  0.000  1.000
     occupation matrix ns (before diag.):
       0.167  0.000  0.000
       0.000  0.167  0.000
       0.000  0.000  0.167
     ------------------------ ATOM   58 ------------------------
     Tr[ns( 58)] =   1.00000
     eigenvalues:
       0.167  0.167  0.167
     eigenvectors (columns):
       1.000  0.000  0.000
       0.000  1.000  0.000
       0.000  0.000  1.000
     occupation matrix ns (before diag.):
       0.167  0.000  0.000
       0.000  0.167  0.000
       0.000  0.000  0.167
     ------------------------ ATOM   59 ------------------------
     Tr[ns( 59)] =   1.00000
     eigenvalues:
       0.167  0.167  0.167
     eigenvectors (columns):
       1.000  0.000  0.000
       0.000  1.000  0.000
       0.000  0.000  1.000
     occupation matrix ns (before diag.):
       0.167  0.000  0.000
       0.000  0.167  0.000
       0.000  0.000  0.167
     ------------------------ ATOM   60 ------------------------
     Tr[ns( 60)] =   1.00000
     eigenvalues:
       0.167  0.167  0.167
     eigenvectors (columns):
       1.000  0.000  0.000
       0.000  1.000  0.000
       0.000  0.000  1.000
     occupation matrix ns (before diag.):
       0.167  0.000  0.000
       0.000  0.167  0.000
       0.000  0.000  0.167
     ------------------------ ATOM   61 ------------------------
     Tr[ns( 61)] =   3.00000
     eigenvalues:
       0.500  0.500  0.500
     eigenvectors (columns):
       1.000  0.000  0.000
       0.000  1.000  0.000
       0.000  0.000  1.000
     occupation matrix ns (before diag.):
       0.500  0.000  0.000
       0.000  0.500  0.000
       0.000  0.000  0.500
     ------------------------ ATOM   62 ------------------------
     Tr[ns( 62)] =   3.00000
     eigenvalues:
       0.500  0.500  0.500
     eigenvectors (columns):
       1.000  0.000  0.000
       0.000  1.000  0.000
       0.000  0.000  1.000
     occupation matrix ns (before diag.):
       0.500  0.000  0.000
       0.000  0.500  0.000
       0.000  0.000  0.500
     ------------------------ ATOM   63 ------------------------
     Tr[ns( 63)] =   3.00000
     eigenvalues:
       0.500  0.500  0.500
     eigenvectors (columns):
       1.000  0.000  0.000
       0.000  1.000  0.000
       0.000  0.000  1.000
     occupation matrix ns (before diag.):
       0.500  0.000  0.000
       0.000  0.500  0.000
       0.000  0.000  0.500
     ------------------------ ATOM   64 ------------------------
     Tr[ns( 64)] =   3.00000
     eigenvalues:
       0.500  0.500  0.500
     eigenvectors (columns):
       1.000  0.000  0.000
       0.000  1.000  0.000
       0.000  0.000  1.000
     occupation matrix ns (before diag.):
       0.500  0.000  0.000
       0.000  0.500  0.000
       0.000  0.000  0.500
     ------------------------ ATOM   65 ------------------------
     Tr[ns( 65)] =   1.00000
     eigenvalues:
       0.167  0.167  0.167
     eigenvectors (columns):
       1.000  0.000  0.000
       0.000  1.000  0.000
       0.000  0.000  1.000
     occupation matrix ns (before diag.):
       0.167  0.000  0.000
       0.000  0.167  0.000
       0.000  0.000  0.167
     ------------------------ ATOM   66 ------------------------
     Tr[ns( 66)] =   1.00000
     eigenvalues:
       0.167  0.167  0.167
     eigenvectors (columns):
       1.000  0.000  0.000
       0.000  1.000  0.000
       0.000  0.000  1.000
     occupation matrix ns (before diag.):
       0.167  0.000  0.000
       0.000  0.167  0.000
       0.000  0.000  0.167
     ------------------------ ATOM   67 ------------------------
     Tr[ns( 67)] =   1.00000
     eigenvalues:
       0.167  0.167  0.167
     eigenvectors (columns):
       1.000  0.000  0.000
       0.000  1.000  0.000
       0.000  0.000  1.000
     occupation matrix ns (before diag.):
       0.167  0.000  0.000
       0.000  0.167  0.000
       0.000  0.000  0.167
     ------------------------ ATOM   68 ------------------------
     Tr[ns( 68)] =   1.00000
     eigenvalues:
       0.167  0.167  0.167
     eigenvectors (columns):
       1.000  0.000  0.000
       0.000  1.000  0.000
       0.000  0.000  1.000
     occupation matrix ns (before diag.):
       0.167  0.000  0.000
       0.000  0.167  0.000
       0.000  0.000  0.167
     ------------------------ ATOM   69 ------------------------
     Tr[ns( 69)] =   3.00000
     eigenvalues:
       0.500  0.500  0.500
     eigenvectors (columns):
       1.000  0.000  0.000
       0.000  1.000  0.000
       0.000  0.000  1.000
     occupation matrix ns (before diag.):
       0.500  0.000  0.000
       0.000  0.500  0.000
       0.000  0.000  0.500
     ------------------------ ATOM   70 ------------------------
     Tr[ns( 70)] =   3.00000
     eigenvalues:
       0.500  0.500  0.500
     eigenvectors (columns):
       1.000  0.000  0.000
       0.000  1.000  0.000
       0.000  0.000  1.000
     occupation matrix ns (before diag.):
       0.500  0.000  0.000
       0.000  0.500  0.000
       0.000  0.000  0.500
     ------------------------ ATOM   71 ------------------------
     Tr[ns( 71)] =   3.00000
     eigenvalues:
       0.500  0.500  0.500
     eigenvectors (columns):
       1.000  0.000  0.000
       0.000  1.000  0.000
       0.000  0.000  1.000
     occupation matrix ns (before diag.):
       0.500  0.000  0.000
       0.000  0.500  0.000
       0.000  0.000  0.500
     ------------------------ ATOM   72 ------------------------
     Tr[ns( 72)] =   3.00000
     eigenvalues:
       0.500  0.500  0.500
     eigenvectors (columns):
       1.000  0.000  0.000
       0.000  1.000  0.000
       0.000  0.000  1.000
     occupation matrix ns (before diag.):
       0.500  0.000  0.000
       0.000  0.500  0.000
       0.000  0.000  0.500
     ------------------------ ATOM   73 ------------------------
     Tr[ns( 73)] =   1.00000
     eigenvalues:
       0.167  0.167  0.167
     eigenvectors (columns):
       1.000  0.000  0.000
       0.000  1.000  0.000
       0.000  0.000  1.000
     occupation matrix ns (before diag.):
       0.167  0.000  0.000
       0.000  0.167  0.000
       0.000  0.000  0.167
     ------------------------ ATOM   74 ------------------------
     Tr[ns( 74)] =   1.00000
     eigenvalues:
       0.167  0.167  0.167
     eigenvectors (columns):
       1.000  0.000  0.000
       0.000  1.000  0.000
       0.000  0.000  1.000
     occupation matrix ns (before diag.):
       0.167  0.000  0.000
       0.000  0.167  0.000
       0.000  0.000  0.167
     ------------------------ ATOM   75 ------------------------
     Tr[ns( 75)] =   1.00000
     eigenvalues:
       0.167  0.167  0.167
     eigenvectors (columns):
       1.000  0.000  0.000
       0.000  1.000  0.000
       0.000  0.000  1.000
     occupation matrix ns (before diag.):
       0.167  0.000  0.000
       0.000  0.167  0.000
       0.000  0.000  0.167
     ------------------------ ATOM   76 ------------------------
     Tr[ns( 76)] =   1.00000
     eigenvalues:
       0.167  0.167  0.167
     eigenvectors (columns):
       1.000  0.000  0.000
       0.000  1.000  0.000
       0.000  0.000  1.000
     occupation matrix ns (before diag.):
       0.167  0.000  0.000
       0.000  0.167  0.000
       0.000  0.000  0.167
     ------------------------ ATOM   77 ------------------------
     Tr[ns( 77)] =   3.00000
     eigenvalues:
       0.500  0.500  0.500
     eigenvectors (columns):
       1.000  0.000  0.000
       0.000  1.000  0.000
       0.000  0.000  1.000
     occupation matrix ns (before diag.):
       0.500  0.000  0.000
       0.000  0.500  0.000
       0.000  0.000  0.500
     ------------------------ ATOM   78 ------------------------
     Tr[ns( 78)] =   3.00000
     eigenvalues:
       0.500  0.500  0.500
     eigenvectors (columns):
       1.000  0.000  0.000
       0.000  1.000  0.000
       0.000  0.000  1.000
     occupation matrix ns (before diag.):
       0.500  0.000  0.000
       0.000  0.500  0.000
       0.000  0.000  0.500
     ------------------------ ATOM   79 ------------------------
     Tr[ns( 79)] =   3.00000
     eigenvalues:
       0.500  0.500  0.500
     eigenvectors (columns):
       1.000  0.000  0.000
       0.000  1.000  0.000
       0.000  0.000  1.000
     occupation matrix ns (before diag.):
       0.500  0.000  0.000
       0.000  0.500  0.000
       0.000  0.000  0.500
     ------------------------ ATOM   80 ------------------------
     Tr[ns( 80)] =   3.00000
     eigenvalues:
       0.500  0.500  0.500
     eigenvectors (columns):
       1.000  0.000  0.000
       0.000  1.000  0.000
       0.000  0.000  1.000
     occupation matrix ns (before diag.):
       0.500  0.000  0.000
       0.000  0.500  0.000
       0.000  0.000  0.500
     ------------------------ ATOM   81 ------------------------
     Tr[ns( 81)] =   1.00000
     eigenvalues:
       0.167  0.167  0.167
     eigenvectors (columns):
       1.000  0.000  0.000
       0.000  1.000  0.000
       0.000  0.000  1.000
     occupation matrix ns (before diag.):
       0.167  0.000  0.000
       0.000  0.167  0.000
       0.000  0.000  0.167
     ------------------------ ATOM   82 ------------------------
     Tr[ns( 82)] =   1.00000
     eigenvalues:
       0.167  0.167  0.167
     eigenvectors (columns):
       1.000  0.000  0.000
       0.000  1.000  0.000
       0.000  0.000  1.000
     occupation matrix ns (before diag.):
       0.167  0.000  0.000
       0.000  0.167  0.000
       0.000  0.000  0.167
     ------------------------ ATOM   83 ------------------------
     Tr[ns( 83)] =   1.00000
     eigenvalues:
       0.167  0.167  0.167
     eigenvectors (columns):
       1.000  0.000  0.000
       0.000  1.000  0.000
       0.000  0.000  1.000
     occupation matrix ns (before diag.):
       0.167  0.000  0.000
       0.000  0.167  0.000
       0.000  0.000  0.167
     ------------------------ ATOM   84 ------------------------
     Tr[ns( 84)] =   1.00000
     eigenvalues:
       0.167  0.167  0.167
     eigenvectors (columns):
       1.000  0.000  0.000
       0.000  1.000  0.000
       0.000  0.000  1.000
     occupation matrix ns (before diag.):
       0.167  0.000  0.000
       0.000  0.167  0.000
       0.000  0.000  0.167
     ------------------------ ATOM   85 ------------------------
     Tr[ns( 85)] =   3.00000
     eigenvalues:
       0.500  0.500  0.500
     eigenvectors (columns):
       1.000  0.000  0.000
       0.000  1.000  0.000
       0.000  0.000  1.000
     occupation matrix ns (before diag.):
       0.500  0.000  0.000
       0.000  0.500  0.000
       0.000  0.000  0.500
     ------------------------ ATOM   86 ------------------------
     Tr[ns( 86)] =   3.00000
     eigenvalues:
       0.500  0.500  0.500
     eigenvectors (columns):
       1.000  0.000  0.000
       0.000  1.000  0.000
       0.000  0.000  1.000
     occupation matrix ns (before diag.):
       0.500  0.000  0.000
       0.000  0.500  0.000
       0.000  0.000  0.500
     ------------------------ ATOM   87 ------------------------
     Tr[ns( 87)] =   3.00000
     eigenvalues:
       0.500  0.500  0.500
     eigenvectors (columns):
       1.000  0.000  0.000
       0.000  1.000  0.000
       0.000  0.000  1.000
     occupation matrix ns (before diag.):
       0.500  0.000  0.000
       0.000  0.500  0.000
       0.000  0.000  0.500
     ------------------------ ATOM   88 ------------------------
     Tr[ns( 88)] =   3.00000
     eigenvalues:
       0.500  0.500  0.500
     eigenvectors (columns):
       1.000  0.000  0.000
       0.000  1.000  0.000
       0.000  0.000  1.000
     occupation matrix ns (before diag.):
       0.500  0.000  0.000
       0.000  0.500  0.000
       0.000  0.000  0.500
     ------------------------ ATOM   89 ------------------------
     Tr[ns( 89)] =   1.00000
     eigenvalues:
       0.167  0.167  0.167
     eigenvectors (columns):
       1.000  0.000  0.000
       0.000  1.000  0.000
       0.000  0.000  1.000
     occupation matrix ns (before diag.):
       0.167  0.000  0.000
       0.000  0.167  0.000
       0.000  0.000  0.167
     ------------------------ ATOM   90 ------------------------
     Tr[ns( 90)] =   1.00000
     eigenvalues:
       0.167  0.167  0.167
     eigenvectors (columns):
       1.000  0.000  0.000
       0.000  1.000  0.000
       0.000  0.000  1.000
     occupation matrix ns (before diag.):
       0.167  0.000  0.000
       0.000  0.167  0.000
       0.000  0.000  0.167
     ------------------------ ATOM   91 ------------------------
     Tr[ns( 91)] =   1.00000
     eigenvalues:
       0.167  0.167  0.167
     eigenvectors (columns):
       1.000  0.000  0.000
       0.000  1.000  0.000
       0.000  0.000  1.000
     occupation matrix ns (before diag.):
       0.167  0.000  0.000
       0.000  0.167  0.000
       0.000  0.000  0.167
     ------------------------ ATOM   92 ------------------------
     Tr[ns( 92)] =   1.00000
     eigenvalues:
       0.167  0.167  0.167
     eigenvectors (columns):
       1.000  0.000  0.000
       0.000  1.000  0.000
       0.000  0.000  1.000
     occupation matrix ns (before diag.):
       0.167  0.000  0.000
       0.000  0.167  0.000
       0.000  0.000  0.167
     ------------------------ ATOM   93 ------------------------
     Tr[ns( 93)] =   3.00000
     eigenvalues:
       0.500  0.500  0.500
     eigenvectors (columns):
       1.000  0.000  0.000
       0.000  1.000  0.000
       0.000  0.000  1.000
     occupation matrix ns (before diag.):
       0.500  0.000  0.000
       0.000  0.500  0.000
       0.000  0.000  0.500
     ------------------------ ATOM   94 ------------------------
     Tr[ns( 94)] =   3.00000
     eigenvalues:
       0.500  0.500  0.500
     eigenvectors (columns):
       1.000  0.000  0.000
       0.000  1.000  0.000
       0.000  0.000  1.000
     occupation matrix ns (before diag.):
       0.500  0.000  0.000
       0.000  0.500  0.000
       0.000  0.000  0.500
     ------------------------ ATOM   95 ------------------------
     Tr[ns( 95)] =   3.00000
     eigenvalues:
       0.500  0.500  0.500
     eigenvectors (columns):
       1.000  0.000  0.000
       0.000  1.000  0.000
       0.000  0.000  1.000
     occupation matrix ns (before diag.):
       0.500  0.000  0.000
       0.000  0.500  0.000
       0.000  0.000  0.500
     ------------------------ ATOM   96 ------------------------
     Tr[ns( 96)] =   3.00000
     eigenvalues:
       0.500  0.500  0.500
     eigenvectors (columns):
       1.000  0.000  0.000
       0.000  1.000  0.000
       0.000  0.000  1.000
     occupation matrix ns (before diag.):
       0.500  0.000  0.000
       0.000  0.500  0.000
       0.000  0.000  0.500
     ------------------------ ATOM   97 ------------------------
     Tr[ns( 97)] =   1.00000
     eigenvalues:
       0.167  0.167  0.167
     eigenvectors (columns):
       1.000  0.000  0.000
       0.000  1.000  0.000
       0.000  0.000  1.000
     occupation matrix ns (before diag.):
       0.167  0.000  0.000
       0.000  0.167  0.000
       0.000  0.000  0.167
     ------------------------ ATOM   98 ------------------------
     Tr[ns( 98)] =   1.00000
     eigenvalues:
       0.167  0.167  0.167
     eigenvectors (columns):
       1.000  0.000  0.000
       0.000  1.000  0.000
       0.000  0.000  1.000
     occupation matrix ns (before diag.):
       0.167  0.000  0.000
       0.000  0.167  0.000
       0.000  0.000  0.167
     ------------------------ ATOM   99 ------------------------
     Tr[ns( 99)] =   1.00000
     eigenvalues:
       0.167  0.167  0.167
     eigenvectors (columns):
       1.000  0.000  0.000
       0.000  1.000  0.000
       0.000  0.000  1.000
     occupation matrix ns (before diag.):
       0.167  0.000  0.000
       0.000  0.167  0.000
       0.000  0.000  0.167
     ------------------------ ATOM  100 ------------------------
     Tr[ns(100)] =   1.00000
     eigenvalues:
       0.167  0.167  0.167
     eigenvectors (columns):
       1.000  0.000  0.000
       0.000  1.000  0.000
       0.000  0.000  1.000
     occupation matrix ns (before diag.):
       0.167  0.000  0.000
       0.000  0.167  0.000
       0.000  0.000  0.167
     ------------------------ ATOM  101 ------------------------
     Tr[ns(101)] =   3.00000
     eigenvalues:
       0.500  0.500  0.500
     eigenvectors (columns):
       1.000  0.000  0.000
       0.000  1.000  0.000
       0.000  0.000  1.000
     occupation matrix ns (before diag.):
       0.500  0.000  0.000
       0.000  0.500  0.000
       0.000  0.000  0.500
     ------------------------ ATOM  102 ------------------------
     Tr[ns(102)] =   3.00000
     eigenvalues:
       0.500  0.500  0.500
     eigenvectors (columns):
       1.000  0.000  0.000
       0.000  1.000  0.000
       0.000  0.000  1.000
     occupation matrix ns (before diag.):
       0.500  0.000  0.000
       0.000  0.500  0.000
       0.000  0.000  0.500
     ------------------------ ATOM  103 ------------------------
     Tr[ns(103)] =   3.00000
     eigenvalues:
       0.500  0.500  0.500
     eigenvectors (columns):
       1.000  0.000  0.000
       0.000  1.000  0.000
       0.000  0.000  1.000
     occupation matrix ns (before diag.):
       0.500  0.000  0.000
       0.000  0.500  0.000
       0.000  0.000  0.500
     ------------------------ ATOM  104 ------------------------
     Tr[ns(104)] =   3.00000
     eigenvalues:
       0.500  0.500  0.500
     eigenvectors (columns):
       1.000  0.000  0.000
       0.000  1.000  0.000
       0.000  0.000  1.000
     occupation matrix ns (before diag.):
       0.500  0.000  0.000
       0.000  0.500  0.000
       0.000  0.000  0.500
     ------------------------ ATOM  105 ------------------------
     Tr[ns(105)] =   1.00000
     eigenvalues:
       0.167  0.167  0.167
     eigenvectors (columns):
       1.000  0.000  0.000
       0.000  1.000  0.000
       0.000  0.000  1.000
     occupation matrix ns (before diag.):
       0.167  0.000  0.000
       0.000  0.167  0.000
       0.000  0.000  0.167
     ------------------------ ATOM  106 ------------------------
     Tr[ns(106)] =   1.00000
     eigenvalues:
       0.167  0.167  0.167
     eigenvectors (columns):
       1.000  0.000  0.000
       0.000  1.000  0.000
       0.000  0.000  1.000
     occupation matrix ns (before diag.):
       0.167  0.000  0.000
       0.000  0.167  0.000
       0.000  0.000  0.167
     ------------------------ ATOM  107 ------------------------
     Tr[ns(107)] =   1.00000
     eigenvalues:
       0.167  0.167  0.167
     eigenvectors (columns):
       1.000  0.000  0.000
       0.000  1.000  0.000
       0.000  0.000  1.000
     occupation matrix ns (before diag.):
       0.167  0.000  0.000
       0.000  0.167  0.000
       0.000  0.000  0.167
     ------------------------ ATOM  108 ------------------------
     Tr[ns(108)] =   1.00000
     eigenvalues:
       0.167  0.167  0.167
     eigenvectors (columns):
       1.000  0.000  0.000
       0.000  1.000  0.000
       0.000  0.000  1.000
     occupation matrix ns (before diag.):
       0.167  0.000  0.000
       0.000  0.167  0.000
       0.000  0.000  0.167
     ------------------------ ATOM  109 ------------------------
     Tr[ns(109)] =   3.00000
     eigenvalues:
       0.500  0.500  0.500
     eigenvectors (columns):
       1.000  0.000  0.000
       0.000  1.000  0.000
       0.000  0.000  1.000
     occupation matrix ns (before diag.):
       0.500  0.000  0.000
       0.000  0.500  0.000
       0.000  0.000  0.500
     ------------------------ ATOM  110 ------------------------
     Tr[ns(110)] =   3.00000
     eigenvalues:
       0.500  0.500  0.500
     eigenvectors (columns):
       1.000  0.000  0.000
       0.000  1.000  0.000
       0.000  0.000  1.000
     occupation matrix ns (before diag.):
       0.500  0.000  0.000
       0.000  0.500  0.000
       0.000  0.000  0.500
     ------------------------ ATOM  111 ------------------------
     Tr[ns(111)] =   3.00000
     eigenvalues:
       0.500  0.500  0.500
     eigenvectors (columns):
       1.000  0.000  0.000
       0.000  1.000  0.000
       0.000  0.000  1.000
     occupation matrix ns (before diag.):
       0.500  0.000  0.000
       0.000  0.500  0.000
       0.000  0.000  0.500
     ------------------------ ATOM  112 ------------------------
     Tr[ns(112)] =   3.00000
     eigenvalues:
       0.500  0.500  0.500
     eigenvectors (columns):
       1.000  0.000  0.000
       0.000  1.000  0.000
       0.000  0.000  1.000
     occupation matrix ns (before diag.):
       0.500  0.000  0.000
       0.000  0.500  0.000
       0.000  0.000  0.500
     ------------------------ ATOM  113 ------------------------
     Tr[ns(113)] =   1.00000
     eigenvalues:
       0.167  0.167  0.167
     eigenvectors (columns):
       1.000  0.000  0.000
       0.000  1.000  0.000
       0.000  0.000  1.000
     occupation matrix ns (before diag.):
       0.167  0.000  0.000
       0.000  0.167  0.000
       0.000  0.000  0.167
     ------------------------ ATOM  114 ------------------------
     Tr[ns(114)] =   1.00000
     eigenvalues:
       0.167  0.167  0.167
     eigenvectors (columns):
       1.000  0.000  0.000
       0.000  1.000  0.000
       0.000  0.000  1.000
     occupation matrix ns (before diag.):
       0.167  0.000  0.000
       0.000  0.167  0.000
       0.000  0.000  0.167
     ------------------------ ATOM  115 ------------------------
     Tr[ns(115)] =   1.00000
     eigenvalues:
       0.167  0.167  0.167
     eigenvectors (columns):
       1.000  0.000  0.000
       0.000  1.000  0.000
       0.000  0.000  1.000
     occupation matrix ns (before diag.):
       0.167  0.000  0.000
       0.000  0.167  0.000
       0.000  0.000  0.167
     ------------------------ ATOM  116 ------------------------
     Tr[ns(116)] =   1.00000
     eigenvalues:
       0.167  0.167  0.167
     eigenvectors (columns):
       1.000  0.000  0.000
       0.000  1.000  0.000
       0.000  0.000  1.000
     occupation matrix ns (before diag.):
       0.167  0.000  0.000
       0.000  0.167  0.000
       0.000  0.000  0.167
     ------------------------ ATOM  117 ------------------------
     Tr[ns(117)] =   3.00000
     eigenvalues:
       0.500  0.500  0.500
     eigenvectors (columns):
       1.000  0.000  0.000
       0.000  1.000  0.000
       0.000  0.000  1.000
     occupation matrix ns (before diag.):
       0.500  0.000  0.000
       0.000  0.500  0.000
       0.000  0.000  0.500
     ------------------------ ATOM  118 ------------------------
     Tr[ns(118)] =   3.00000
     eigenvalues:
       0.500  0.500  0.500
     eigenvectors (columns):
       1.000  0.000  0.000
       0.000  1.000  0.000
       0.000  0.000  1.000
     occupation matrix ns (before diag.):
       0.500  0.000  0.000
       0.000  0.500  0.000
       0.000  0.000  0.500
     ------------------------ ATOM  119 ------------------------
     Tr[ns(119)] =   3.00000
     eigenvalues:
       0.500  0.500  0.500
     eigenvectors (columns):
       1.000  0.000  0.000
       0.000  1.000  0.000
       0.000  0.000  1.000
     occupation matrix ns (before diag.):
       0.500  0.000  0.000
       0.000  0.500  0.000
       0.000  0.000  0.500
     ------------------------ ATOM  120 ------------------------
     Tr[ns(120)] =   3.00000
     eigenvalues:
       0.500  0.500  0.500
     eigenvectors (columns):
       1.000  0.000  0.000
       0.000  1.000  0.000
       0.000  0.000  1.000
     occupation matrix ns (before diag.):
       0.500  0.000  0.000
       0.000  0.500  0.000
       0.000  0.000  0.500
     ------------------------ ATOM  121 ------------------------
     Tr[ns(121)] =   1.00000
     eigenvalues:
       0.167  0.167  0.167
     eigenvectors (columns):
       1.000  0.000  0.000
       0.000  1.000  0.000
       0.000  0.000  1.000
     occupation matrix ns (before diag.):
       0.167  0.000  0.000
       0.000  0.167  0.000
       0.000  0.000  0.167
     ------------------------ ATOM  122 ------------------------
     Tr[ns(122)] =   1.00000
     eigenvalues:
       0.167  0.167  0.167
     eigenvectors (columns):
       1.000  0.000  0.000
       0.000  1.000  0.000
       0.000  0.000  1.000
     occupation matrix ns (before diag.):
       0.167  0.000  0.000
       0.000  0.167  0.000
       0.000  0.000  0.167
     ------------------------ ATOM  123 ------------------------
     Tr[ns(123)] =   1.00000
     eigenvalues:
       0.167  0.167  0.167
     eigenvectors (columns):
       1.000  0.000  0.000
       0.000  1.000  0.000
       0.000  0.000  1.000
     occupation matrix ns (before diag.):
       0.167  0.000  0.000
       0.000  0.167  0.000
       0.000  0.000  0.167
     ------------------------ ATOM  124 ------------------------
     Tr[ns(124)] =   1.00000
     eigenvalues:
       0.167  0.167  0.167
     eigenvectors (columns):
       1.000  0.000  0.000
       0.000  1.000  0.000
       0.000  0.000  1.000
     occupation matrix ns (before diag.):
       0.167  0.000  0.000
       0.000  0.167  0.000
       0.000  0.000  0.167
     ------------------------ ATOM  125 ------------------------
     Tr[ns(125)] =   3.00000
     eigenvalues:
       0.500  0.500  0.500
     eigenvectors (columns):
       1.000  0.000  0.000
       0.000  1.000  0.000
       0.000  0.000  1.000
     occupation matrix ns (before diag.):
       0.500  0.000  0.000
       0.000  0.500  0.000
       0.000  0.000  0.500
     ------------------------ ATOM  126 ------------------------
     Tr[ns(126)] =   3.00000
     eigenvalues:
       0.500  0.500  0.500
     eigenvectors (columns):
       1.000  0.000  0.000
       0.000  1.000  0.000
       0.000  0.000  1.000
     occupation matrix ns (before diag.):
       0.500  0.000  0.000
       0.000  0.500  0.000
       0.000  0.000  0.500
     ------------------------ ATOM  127 ------------------------
     Tr[ns(127)] =   3.00000
     eigenvalues:
       0.500  0.500  0.500
     eigenvectors (columns):
       1.000  0.000  0.000
       0.000  1.000  0.000
       0.000  0.000  1.000
     occupation matrix ns (before diag.):
       0.500  0.000  0.000
       0.000  0.500  0.000
       0.000  0.000  0.500
     ------------------------ ATOM  128 ------------------------
     Tr[ns(128)] =   3.00000
     eigenvalues:
       0.500  0.500  0.500
     eigenvectors (columns):
       1.000  0.000  0.000
       0.000  1.000  0.000
       0.000  0.000  1.000
     occupation matrix ns (before diag.):
       0.500  0.000  0.000
       0.000  0.500  0.000
       0.000  0.000  0.500
     ------------------------ ATOM  129 ------------------------
     Tr[ns(129)] =   1.00000
     eigenvalues:
       0.167  0.167  0.167
     eigenvectors (columns):
       1.000  0.000  0.000
       0.000  1.000  0.000
       0.000  0.000  1.000
     occupation matrix ns (before diag.):
       0.167  0.000  0.000
       0.000  0.167  0.000
       0.000  0.000  0.167
     ------------------------ ATOM  130 ------------------------
     Tr[ns(130)] =   1.00000
     eigenvalues:
       0.167  0.167  0.167
     eigenvectors (columns):
       1.000  0.000  0.000
       0.000  1.000  0.000
       0.000  0.000  1.000
     occupation matrix ns (before diag.):
       0.167  0.000  0.000
       0.000  0.167  0.000
       0.000  0.000  0.167
     ------------------------ ATOM  131 ------------------------
     Tr[ns(131)] =   1.00000
     eigenvalues:
       0.167  0.167  0.167
     eigenvectors (columns):
       1.000  0.000  0.000
       0.000  1.000  0.000
       0.000  0.000  1.000
     occupation matrix ns (before diag.):
       0.167  0.000  0.000
       0.000  0.167  0.000
       0.000  0.000  0.167
     ------------------------ ATOM  132 ------------------------
     Tr[ns(132)] =   1.00000
     eigenvalues:
       0.167  0.167  0.167
     eigenvectors (columns):
       1.000  0.000  0.000
       0.000  1.000  0.000
       0.000  0.000  1.000
     occupation matrix ns (before diag.):
       0.167  0.000  0.000
       0.000  0.167  0.000
       0.000  0.000  0.167
     ------------------------ ATOM  133 ------------------------
     Tr[ns(133)] =   3.00000
     eigenvalues:
       0.500  0.500  0.500
     eigenvectors (columns):
       1.000  0.000  0.000
       0.000  1.000  0.000
       0.000  0.000  1.000
     occupation matrix ns (before diag.):
       0.500  0.000  0.000
       0.000  0.500  0.000
       0.000  0.000  0.500
     ------------------------ ATOM  134 ------------------------
     Tr[ns(134)] =   3.00000
     eigenvalues:
       0.500  0.500  0.500
     eigenvectors (columns):
       1.000  0.000  0.000
       0.000  1.000  0.000
       0.000  0.000  1.000
     occupation matrix ns (before diag.):
       0.500  0.000  0.000
       0.000  0.500  0.000
       0.000  0.000  0.500
     ------------------------ ATOM  135 ------------------------
     Tr[ns(135)] =   3.00000
     eigenvalues:
       0.500  0.500  0.500
     eigenvectors (columns):
       1.000  0.000  0.000
       0.000  1.000  0.000
       0.000  0.000  1.000
     occupation matrix ns (before diag.):
       0.500  0.000  0.000
       0.000  0.500  0.000
       0.000  0.000  0.500
     ------------------------ ATOM  136 ------------------------
     Tr[ns(136)] =   3.00000
     eigenvalues:
       0.500  0.500  0.500
     eigenvectors (columns):
       1.000  0.000  0.000
       0.000  1.000  0.000
       0.000  0.000  1.000
     occupation matrix ns (before diag.):
       0.500  0.000  0.000
       0.000  0.500  0.000
       0.000  0.000  0.500
     ------------------------ ATOM  137 ------------------------
     Tr[ns(137)] =   1.00000
     eigenvalues:
       0.167  0.167  0.167
     eigenvectors (columns):
       1.000  0.000  0.000
       0.000  1.000  0.000
       0.000  0.000  1.000
     occupation matrix ns (before diag.):
       0.167  0.000  0.000
       0.000  0.167  0.000
       0.000  0.000  0.167
     ------------------------ ATOM  138 ------------------------
     Tr[ns(138)] =   1.00000
     eigenvalues:
       0.167  0.167  0.167
     eigenvectors (columns):
       1.000  0.000  0.000
       0.000  1.000  0.000
       0.000  0.000  1.000
     occupation matrix ns (before diag.):
       0.167  0.000  0.000
       0.000  0.167  0.000
       0.000  0.000  0.167
     ------------------------ ATOM  139 ------------------------
     Tr[ns(139)] =   1.00000
     eigenvalues:
       0.167  0.167  0.167
     eigenvectors (columns):
       1.000  0.000  0.000
       0.000  1.000  0.000
       0.000  0.000  1.000
     occupation matrix ns (before diag.):
       0.167  0.000  0.000
       0.000  0.167  0.000
       0.000  0.000  0.167
     ------------------------ ATOM  140 ------------------------
     Tr[ns(140)] =   1.00000
     eigenvalues:
       0.167  0.167  0.167
     eigenvectors (columns):
       1.000  0.000  0.000
       0.000  1.000  0.000
       0.000  0.000  1.000
     occupation matrix ns (before diag.):
       0.167  0.000  0.000
       0.000  0.167  0.000
       0.000  0.000  0.167
     ------------------------ ATOM  141 ------------------------
     Tr[ns(141)] =   3.00000
     eigenvalues:
       0.500  0.500  0.500
     eigenvectors (columns):
       1.000  0.000  0.000
       0.000  1.000  0.000
       0.000  0.000  1.000
     occupation matrix ns (before diag.):
       0.500  0.000  0.000
       0.000  0.500  0.000
       0.000  0.000  0.500
     ------------------------ ATOM  142 ------------------------
     Tr[ns(142)] =   3.00000
     eigenvalues:
       0.500  0.500  0.500
     eigenvectors (columns):
       1.000  0.000  0.000
       0.000  1.000  0.000
       0.000  0.000  1.000
     occupation matrix ns (before diag.):
       0.500  0.000  0.000
       0.000  0.500  0.000
       0.000  0.000  0.500
     ------------------------ ATOM  143 ------------------------
     Tr[ns(143)] =   3.00000
     eigenvalues:
       0.500  0.500  0.500
     eigenvectors (columns):
       1.000  0.000  0.000
       0.000  1.000  0.000
       0.000  0.000  1.000
     occupation matrix ns (before diag.):
       0.500  0.000  0.000
       0.000  0.500  0.000
       0.000  0.000  0.500
     ------------------------ ATOM  144 ------------------------
     Tr[ns(144)] =   3.00000
     eigenvalues:
       0.500  0.500  0.500
     eigenvectors (columns):
       1.000  0.000  0.000
       0.000  1.000  0.000
       0.000  0.000  1.000
     occupation matrix ns (before diag.):
       0.500  0.000  0.000
       0.000  0.500  0.000
       0.000  0.000  0.500
     ------------------------ ATOM  145 ------------------------
     Tr[ns(145)] =   1.00000
     eigenvalues:
       0.167  0.167  0.167
     eigenvectors (columns):
       1.000  0.000  0.000
       0.000  1.000  0.000
       0.000  0.000  1.000
     occupation matrix ns (before diag.):
       0.167  0.000  0.000
       0.000  0.167  0.000
       0.000  0.000  0.167
     ------------------------ ATOM  146 ------------------------
     Tr[ns(146)] =   1.00000
     eigenvalues:
       0.167  0.167  0.167
     eigenvectors (columns):
       1.000  0.000  0.000
       0.000  1.000  0.000
       0.000  0.000  1.000
     occupation matrix ns (before diag.):
       0.167  0.000  0.000
       0.000  0.167  0.000
       0.000  0.000  0.167
     ------------------------ ATOM  147 ------------------------
     Tr[ns(147)] =   1.00000
     eigenvalues:
       0.167  0.167  0.167
     eigenvectors (columns):
       1.000  0.000  0.000
       0.000  1.000  0.000
       0.000  0.000  1.000
     occupation matrix ns (before diag.):
       0.167  0.000  0.000
       0.000  0.167  0.000
       0.000  0.000  0.167
     ------------------------ ATOM  148 ------------------------
     Tr[ns(148)] =   1.00000
     eigenvalues:
       0.167  0.167  0.167
     eigenvectors (columns):
       1.000  0.000  0.000
       0.000  1.000  0.000
       0.000  0.000  1.000
     occupation matrix ns (before diag.):
       0.167  0.000  0.000
       0.000  0.167  0.000
       0.000  0.000  0.167
     ------------------------ ATOM  149 ------------------------
     Tr[ns(149)] =   3.00000
     eigenvalues:
       0.500  0.500  0.500
     eigenvectors (columns):
       1.000  0.000  0.000
       0.000  1.000  0.000
       0.000  0.000  1.000
     occupation matrix ns (before diag.):
       0.500  0.000  0.000
       0.000  0.500  0.000
       0.000  0.000  0.500
     ------------------------ ATOM  150 ------------------------
     Tr[ns(150)] =   3.00000
     eigenvalues:
       0.500  0.500  0.500
     eigenvectors (columns):
       1.000  0.000  0.000
       0.000  1.000  0.000
       0.000  0.000  1.000
     occupation matrix ns (before diag.):
       0.500  0.000  0.000
       0.000  0.500  0.000
       0.000  0.000  0.500
     ------------------------ ATOM  151 ------------------------
     Tr[ns(151)] =   3.00000
     eigenvalues:
       0.500  0.500  0.500
     eigenvectors (columns):
       1.000  0.000  0.000
       0.000  1.000  0.000
       0.000  0.000  1.000
     occupation matrix ns (before diag.):
       0.500  0.000  0.000
       0.000  0.500  0.000
       0.000  0.000  0.500
     ------------------------ ATOM  152 ------------------------
[...]
   -19.5243 -19.5240 -19.5237 -19.5235 -19.5234 -19.5231 -19.5231 -19.5222
   -19.5220 -19.5220 -19.5214 -19.5213 -19.5206 -19.5202 -19.5200 -19.5195
   -19.5194 -19.5191 -19.5190 -19.5183 -19.5183 -19.5179 -19.5179 -19.5176
   -19.5170 -19.5161 -19.5155 -19.5152 -19.5150 -19.5147 -19.5146 -19.5145
   -19.5135 -19.5130 -19.5130 -19.5129 -19.5126 -19.5126 -19.5125 -19.5123
   -19.5120 -19.5115 -19.5114 -19.5109 -19.5108 -19.5107 -19.5105 -19.5104
   -19.5102 -19.5097 -19.5096 -19.5093 -19.5092 -19.5090 -19.5089 -19.5089
   -19.5088 -19.5085 -19.5080 -19.5078 -19.5076 -19.5076 -19.5074 -19.5074
   -19.5070 -19.5068 -19.5066 -19.5066 -19.5057 -19.5057 -19.5056 -19.5055
   -19.5052 -19.5051 -19.5048 -19.5047 -19.5043 -19.5041 -19.5041 -19.5034
   -19.5030 -19.5030 -19.5029 -19.5028 -19.5027 -19.5026 -19.5024 -19.5021
   -19.5018 -19.5017 -19.5017 -19.5015 -19.5013 -19.5012 -19.5007 -19.5005
   -19.4998 -19.4997 -19.4995 -19.4995 -19.4994 -19.4991 -19.4988 -19.4981
   -19.4977 -19.4976 -19.4972 -19.4971 -19.4970 -19.4968 -19.4967 -19.4966
   -19.4965 -19.4964 -19.4961 -19.4958 -19.4957 -19.4952 -19.4949 -19.4948
   -19.4947 -19.4946 -19.4944 -19.4942 -19.4940 -19.4939 -19.4937 -19.4932
   -19.4921 -19.4920 -19.4919 -19.4918 -19.4914 -19.4911 -19.4909 -19.4901
   -19.4898 -19.4889 -19.4888 -19.4885 -19.4885 -19.4877 -19.4876 -19.4871
   -19.4866 -19.4863 -19.4861 -19.4860 -19.4856 -19.4855 -19.4854 -19.4851
   -19.4848 -19.4847 -19.4839 -19.4838 -19.4831 -19.4831 -19.4830 -19.4829
   -19.4828 -19.4827 -19.4825 -19.4817 -19.4810 -19.4805 -19.4802 -19.4798
   -19.4795 -19.4783 -19.4781 -19.4780 -19.4779 -19.4772 -19.4771 -19.4767
   -19.4760 -19.4754 -19.4748 -19.4745 -19.4742 -19.4736 -19.4734 -19.4729
   -19.4715 -19.4707 -19.4706 -19.4703 -19.4698 -19.4694 -19.4685 -19.4667
   -19.4666 -19.4654 -19.4641 -19.4630 -19.4625 -19.4610 -19.4605 -19.4585
   -19.4562 -19.4529 -19.4512 -19.4493  -7.3974  -7.3906  -7.3877  -7.3851
    -7.3849  -7.3768  -7.3557  -7.3544  -7.3490  -7.3423  -7.3391  -7.3374
    -7.3367  -7.3350  -7.3340  -7.3323  -7.3298  -7.3293  -7.3280  -7.3271
    -7.3262  -7.3246  -7.3233  -7.3122  -7.3116  -7.3110  -7.3071  -7.3065
    -7.3061  -7.3043  -7.3035  -7.3032  -7.3031  -7.3027  -7.3017  -7.2995
    -7.2981  -7.2971  -7.2968  -7.2954  -7.2950  -7.2949  -7.2942  -7.2935
    -7.2928  -7.2926  -7.2893  -7.2875  -7.2865  -7.2860  -7.2849  -7.2842
    -7.2838  -7.2821  -7.2821  -7.2815  -7.2811  -7.2799  -7.2797  -7.2790
    -7.2784  -7.2780  -7.2769  -7.2749  -7.2742  -7.2732  -7.2725  -7.2712
    -7.2706  -7.2700  -7.2697  -7.2681  -7.2673  -7.2664  -7.2663  -7.2637
    -7.2631  -7.2629  -7.2628  -7.2622  -7.2620  -7.2613  -7.2611  -7.2609
    -7.2600  -7.2596  -7.2588  -7.2575  -7.2569  -7.2564  -7.2559  -7.2555
    -7.2551  -7.2546  -7.2531  -7.2526  -7.2521  -7.2518  -7.2516  -7.2510
    -7.2505  -7.2503  -7.2501  -7.2497  -7.2494  -7.2491  -7.2482  -7.2480
    -7.2474  -7.2467  -7.2463  -7.2462  -7.2458  -7.2452  -7.2451  -7.2449
    -7.2440  -7.2435  -7.2428  -7.2422  -7.2416  -7.2413  -7.2407  -7.2405
    -7.2403  -7.2401  -7.2399  -7.2385  -7.2378  -7.2376  -7.2370  -7.2367
    -7.2360  -7.2354  -7.2352  -7.2344  -7.2336  -7.2335  -7.2332  -7.2327
    -7.2324  -7.2316  -7.2312  -7.2310  -7.2305  -7.2300  -7.2294  -7.2292
    -7.2288  -7.2284  -7.2280  -7.2276  -7.2272  -7.2266  -7.2257  -7.2252
    -7.2251  -7.2242  -7.2239  -7.2232  -7.2229  -7.2224  -7.2218  -7.2215
    -7.2213  -7.2208  -7.2206  -7.2204  -7.2202  -7.2199  -7.2188  -7.2182
    -7.2179  -7.2176  -7.2173  -7.2169  -7.2160  -7.2152  -7.2146  -7.2145
    -7.2143  -7.2139  -7.2135  -7.2129  -7.2121  -7.2117  -7.2111  -7.2108
    -7.2100  -7.2097  -7.2096  -7.2093  -7.2090  -7.2083  -7.2077  -7.2068
    -7.2062  -7.2057  -7.2055  -7.2052  -7.2048  -7.2041  -7.2039  -7.2037
    -7.2033  -7.2027  -7.2024  -7.2020  -7.2016  -7.2012  -7.2002  -7.1998
    -7.1992  -7.1987  -7.1985  -7.1984  -7.1980  -7.1971  -7.1968  -7.1965
    -7.1958  -7.1957  -7.1952  -7.1950  -7.1943  -7.1940  -7.1939  -7.1934
    -7.1930  -7.1926  -7.1924  -7.1920  -7.1913  -7.1904  -7.1902  -7.1899
    -7.1895  -7.1889  -7.1883  -7.1878  -7.1876  -7.1874  -7.1872  -7.1869
    -7.1865  -7.1860  -7.1854  -7.1851  -7.1847  -7.1844  -7.1840  -7.1837
    -7.1833  -7.1832  -7.1828  -7.1827  -7.1823  -7.1817  -7.1812  -7.1804
    -7.1802  -7.1792  -7.1786  -7.1781  -7.1779  -7.1773  -7.1771  -7.1769
    -7.1765  -7.1761  -7.1759  -7.1754  -7.1746  -7.1742  -7.1736  -7.1730
    -7.1727  -7.1717  -7.1715  -7.1712  -7.1707  -7.1702  -7.1699  -7.1694
    -7.1691  -7.1686  -7.1680  -7.1675  -7.1670  -7.1669  -7.1666  -7.1662
    -7.1658  -7.1654  -7.1647  -7.1640  -7.1636  -7.1635  -7.1629  -7.1626
    -7.1621  -7.1618  -7.1615  -7.1611  -7.1604  -7.1601  -7.1597  -7.1592
    -7.1589  -7.1587  -7.1582  -7.1581  -7.1579  -7.1567  -7.1564  -7.1564
    -7.1557  -7.1555  -7.1553  -7.1551  -7.1547  -7.1540  -7.1533  -7.1532
    -7.1528  -7.1527  -7.1522  -7.1512  -7.1506  -7.1502  -7.1500  -7.1499
    -7.1494  -7.1491  -7.1480  -7.1474  -7.1468  -7.1465  -7.1465  -7.1459
    -7.1454  -7.1448  -7.1442  -7.1433  -7.1432  -7.1426  -7.1424  -7.1421
    -7.1412  -7.1404  -7.1402  -7.1395  -7.1392  -7.1388  -7.1382  -7.1375
    -7.1370  -7.1363  -7.1362  -7.1359  -7.1356  -7.1352  -7.1348  -7.1345
    -7.1334  -7.1331  -7.1324  -7.1321  -7.1318  -7.1312  -7.1307  -7.1302
    -7.1299  -7.1297  -7.1286  -7.1285  -7.1281  -7.1276  -7.1267  -7.1265
    -7.1261  -7.1257  -7.1253  -7.1248  -7.1240  -7.1230  -7.1226  -7.1225
    -7.1213  -7.1207  -7.1196  -7.1192  -7.1190  -7.1187  -7.1176  -7.1167
    -7.1163  -7.1156  -7.1153  -7.1146  -7.1141  -7.1140  -7.1137  -7.1135
    -7.1133  -7.1124  -7.1112  -7.1108  -7.1100  -7.1097  -7.1095  -7.1090
    -7.1082  -7.1078  -7.1068  -7.1066  -7.1062  -7.1060  -7.1054  -7.1052
    -7.1037  -7.1030  -7.1025  -7.1020  -7.1013  -7.1004  -7.1001  -7.0995
    -7.0993  -7.0984  -7.0981  -7.0976  -7.0968  -7.0959  -7.0952  -7.0949
    -7.0941  -7.0936  -7.0934  -7.0932  -7.0927  -7.0919  -7.0918  -7.0914
    -7.0909  -7.0906  -7.0900  -7.0893  -7.0875  -7.0869  -7.0863  -7.0851
    -7.0850  -7.0841  -7.0836  -7.0832  -7.0825  -7.0812  -7.0807  -7.0800
    -7.0794  -7.0788  -7.0783  -7.0770  -7.0755  -7.0751  -7.0748  -7.0738
    -7.0733  -7.0719  -7.0712  -7.0709  -7.0705  -7.0702  -7.0695  -7.0689
    -7.0686  -7.0679  -7.0672  -7.0668  -7.0660  -7.0655  -7.0653  -7.0629
    -7.0617  -7.0614  -7.0611  -7.0602  -7.0591  -7.0526  -7.0513  -7.0507
    -7.0496  -7.0487  -7.0475  -7.0472  -7.0449  -7.0436  -7.0423  -7.0401
    -7.0395  -7.0388  -7.0377  -7.0374  -7.0346  -7.0337  -7.0317  -7.0312
    -7.0305  -7.0300  -7.0291  -7.0284  -7.0276  -7.0266  -7.0258  -7.0257
    -7.0252  -7.0250  -7.0235  -7.0135  -7.0098  -7.0069  -7.0060  -7.0049
    -7.0032  -7.0012  -6.9993  -6.9987  -6.9960  -6.9943  -6.9939  -6.9915
    -6.9808  -6.9775  -6.9636  -6.9616  -6.9614  -6.9595  -6.9503  -6.9492
    -3.5613  -3.5290  -3.4660  -3.4548  -3.3371  -3.3141  -3.2542  -3.2069
    -3.1995  -3.1644  -3.1365  -3.1161  -3.0934  -3.0372  -2.9734  -2.9566
    -2.9358  -2.9204  -2.8851  -2.8504  -2.8126  -2.7957  -2.7682  -2.7527
    -2.7253  -2.7101  -2.6814  -2.6439  -2.6389  -2.5882  -2.5688  -2.5679
    -2.5270  -2.5015  -2.4491  -2.4276  -2.4019  -2.3893  -2.3644  -2.3493
    -2.3200  -2.2782  -2.2459  -2.2282  -2.2165  -2.2052  -2.1774  -2.1505
    -2.1373  -2.1131  -2.0960  -2.0660  -2.0305  -2.0084  -1.9874  -1.9705
    -1.9125  -1.8868  -1.8705  -1.8414  -1.8127  -1.7924  -1.7484  -1.7405
    -1.7328  -1.7264  -1.6993  -1.6898  -1.6495  -1.6026  -1.5848  -1.5679
    -1.5434  -1.5246  -1.4985  -1.4870  -1.4668  -1.4358  -1.4264  -1.4228
    -1.3732  -1.3453  -1.3183  -1.3125  -1.2827  -1.2616  -1.2416  -1.2032
    -1.1965  -1.1573  -1.1438  -1.1414  -1.1229  -1.0929  -1.0623  -1.0384
    -1.0037  -0.9436  -0.9254  -0.9066  -0.8764  -0.8566  -0.8208  -0.8042
    -0.7884  -0.7587  -0.7495  -0.7006  -0.3551  -0.2920  -0.2737  -0.2210
     0.0533   0.0569   0.0631   0.0693   0.1020   0.1137   0.1263   0.1317
     0.1553   0.1706   0.1801   0.2177   0.2277   0.2553   0.2648   0.2921
     0.3025   0.3150   0.3223   0.3386   0.3526   0.3556   0.3867   0.4037
     0.4304   0.4605   0.4746   0.4873   0.5071   0.5238   0.5278   0.5313
     0.5953   0.6218   0.6612   0.6764   0.6971   0.7168   0.7317   0.7529
     0.7611   0.7964   0.8250   0.8603   0.8725   0.8857   0.9046   0.9294
     0.9390   0.9592   0.9713   0.9847   1.0062   1.0239   1.0396   1.0900
     1.3567   1.4344   1.4403   1.4757   1.5427   1.5637   1.5908   1.6131
     1.6530   1.6852   1.7012   1.7325   1.7890   1.8179   1.8419   1.8566
     1.9040   1.9280   1.9325   1.9810   1.9926   2.0141   2.0372   2.0508
     2.0688   2.0840   2.0975   2.1424   2.8589   2.8912   2.9013   2.9445
     2.9792   2.9861   3.0068   3.0419   3.0500   3.0643   3.0901   3.1038
     3.1112   3.1453   3.1505   3.2108   3.3018   3.3398   3.3428   3.3596
     3.3857   3.3899   3.3988   3.4033   3.4170   3.4314   3.4466   3.4628
     3.4807   3.5020   3.5217   3.5368   3.5400   3.5576   3.5827   3.5950
     3.6125   3.6193   3.6404   3.6452   3.6558   3.6713   3.6851   3.7161
     3.7388   3.7544   3.7609   3.7713   3.7878   3.8011   3.8192   3.8313
     3.8516   3.8727   3.8896   3.9037   3.9092   3.9466   3.9580   3.9700
     3.9940   4.0360   4.0573   4.0997   4.1859   4.1990   4.2651   4.2847
     4.2947   4.3193   4.3493   4.3776   4.3892   4.4089   4.4282   4.4483
     4.4544   4.4829   4.4858   4.5049   4.5178   4.5253   4.5422   4.5584
     4.5685   4.5839   4.6071   4.6150   4.6299   4.6401   4.6683   4.6725
     4.6832   4.6897   4.7028   4.7288   4.7539   4.7564   4.7882   4.8143
     4.8266   4.8370   4.8512   4.8563   4.8748   4.8889   4.9073   4.9239
     4.9293   4.9451   4.9534   4.9633   4.9814   5.0035   5.0084   5.0221
     5.0398   5.0518   5.0654   5.0980   5.1093   5.1208   5.1425   5.1462
     5.1655   5.1752   5.1879   5.2123   5.2339   5.2456   5.2673   5.2726
     5.2905   5.2950   5.3163   5.3245   5.3363   5.3453   5.3561   5.3694
     5.3752   5.4015   5.4059   5.4199   5.4295   5.4395   5.4404   5.4910
     5.5036   5.5125   5.5267   5.5300   5.5612   5.5719   5.5838   5.6111
     5.6239   5.6416   5.6660   5.6744   5.6914   5.7121   5.7168   5.7277
     5.7531   5.7707   5.7801   5.7868   5.8059   5.8318   5.8415   5.8647
     5.8914   5.9075   5.9159   5.9236   5.9558   5.9809   5.9914   6.0048
     6.0405   6.0567   6.0798   6.0994   6.1495   6.1509   6.1662   6.1915
     6.2038   6.2116   6.2211   6.2510   6.2574   6.2774   6.3000   6.3149
     6.3259   6.3478   6.3655   6.3722   6.3904   6.4031   6.4331   6.4476
     6.5044   6.5163   6.5217   6.5481   6.5622   6.5998   6.6049   6.6381
     6.6418   6.6700   6.6834   6.6909   6.6947   6.7356   6.7596   6.7658
     6.7798   6.8029   6.8389   6.8691   6.8786   6.8865   6.9272   6.9606
     6.9946   7.0400   7.0611   7.0963   7.4663   7.5277   7.5354   7.6235
     9.2534   9.3689   9.3795   9.4141   9.4493   9.4829   9.5304   9.5700
     9.6086   9.6170   9.6410   9.6631   9.7021   9.7097   9.7309   9.7339
     9.7610   9.7838   9.7917   9.7951   9.8056   9.8246   9.8412   9.8518
     9.8589   9.8784   9.8838   9.9213   9.9263   9.9481   9.9733   9.9955
     9.9984  10.0215  10.0366  10.0586  10.0780  10.0955  10.1079  10.1210
    10.1376  10.1476  10.1553  10.1579  10.1804  10.1824  10.1973  10.2053
    10.2253  10.2393  10.2494  10.2772  10.2851  10.2902  10.3051  10.3134
    10.3307  10.3419  10.3506  10.3813  10.3943  10.4022  10.4159  10.4294
    10.4472  10.4565  10.4646  10.4814  10.4885  10.4993  10.5143  10.5212
    10.5336  10.5472  10.5487  10.5561  10.5682  10.5879  10.5935  10.5979
    10.6186  10.6272  10.6318  10.6438  10.6746  10.6783  10.6985  10.7113
    10.7342  10.7574  10.7601  10.7688  10.7774  10.7902  10.7994  10.8176
    10.8270  10.8448  10.8510  10.8532  10.8706  10.8867  10.8995  10.9104
    10.9178  10.9449  10.9776  11.0043  11.2773  11.2972  11.3315  11.3427
    11.4214  11.4727  11.4787  11.4927  11.5249  11.5580  11.5800  11.6064
    11.6200  11.6298  11.6446  11.6522  11.6693  11.6883  11.7072  11.7227
    11.7326  11.7374  11.7499  11.7840  11.7888  11.8006  11.8102  11.8394
    11.8560  11.8609  11.8668  11.8772  11.8852  11.8880  11.8947  11.9124
    11.9208  11.9273  11.9383  11.9674  11.9832  11.9986  12.0392  12.0434
    12.1515  12.1726  12.1906  12.1947  12.1982  12.2136  12.2245  12.2291
    12.2520  12.2619  12.2677  12.2732  12.2890  12.2959  12.3191  12.3332
    12.3665  12.4030  12.4177  12.4209  12.4369  12.4394  12.4582  12.4701
    12.4840  12.4917  12.4996  12.5091  12.5116  12.5351  12.5377  12.5454
    12.5530  12.5574  12.5705  12.5760  12.5833  12.6035  12.6037  12.6057
    12.6219  12.6267  12.6323  12.6432  12.6451  12.6559  12.6605  12.6781
    12.6833  12.6940  12.6982  12.7086  12.7230  12.7280  12.7309  12.7462
    12.7549  12.7584  12.7706  12.7866  12.7960  12.8000  12.8207  12.8312
    12.8402  12.8522  12.8690  12.8769  12.9148  12.9517  12.9694  12.9802
    13.0036  13.0136  13.0242  13.0456  13.1411  13.1492  13.1590  13.1703
    13.1852  13.1919  13.2025  13.2142  13.2328  13.2565  13.2631  13.2741
    13.2802  13.2891  13.3044  13.3181  13.3211  13.3352  13.3422  13.3634
    13.3666  13.3751  13.3853  13.3966  13.4050  13.4184  13.4297  13.4360
    13.4519  13.4585  13.4692  13.4790  13.4967  13.5010  13.5110  13.5220
    13.5282  13.5474  13.5511  13.5675  13.5779  13.5865  13.6010  13.6043
    13.6212  13.6300  13.6497  13.6743  13.6818  13.7058  13.7201  13.7344
    13.7363  13.7402  13.7676  13.7949  13.8241  13.8498  13.8678  13.8931
    13.9047  13.9255  13.9327  13.9439  13.9586  13.9686  13.9793  13.9808
    13.9947  14.0010  14.0104  14.0155  14.0270  14.0472  14.0486  14.0567
    14.0638  14.0666  14.0836  14.0901  14.0912  14.1083  14.1196  14.1246
    14.1336  14.1420  14.1472  14.1532  14.1630  14.1764  14.1839  14.2084
    14.2111  14.2170  14.2324  14.2396  14.2537  14.2655  14.2720  14.2765
    14.2880  14.2913  14.3073  14.3153  14.3240  14.3351  14.3471  14.3529
    14.3610  14.3780  14.3863  14.3929  14.4004  14.4049  14.4406  14.4441
    14.4470  14.4708  14.4718  14.4901  14.4938  14.5122  14.5359  14.5460
    14.6482  14.7010  14.7144  14.7237  14.7487  14.7586  14.7687  14.8326
    14.9202  14.9498  14.9641  14.9876  15.0133  15.0269  15.0500  15.0965
    15.1424  15.1804  15.2000  15.2053  15.2146  15.2345  15.2492  15.2789
    15.2940  15.3089  15.3169  15.3276  15.3463  15.3606  15.4083  15.4140
    15.5311  15.5639  15.5733  15.5783  15.5900  15.6093  15.6152  15.6320
    15.6470  15.6561  15.6646  15.6715  15.6866  15.6991  15.7096  15.7176
    15.7341  15.7424  15.7593  15.7721  15.7877  15.8143  15.8313  15.8460
    15.8558  15.8847  15.9068  15.9111  15.9166  15.9349  15.9404  15.9674
    15.9721  15.9773  15.9959  16.0043  16.0101  16.0298  16.0543  16.0634
    16.0791  16.1055  16.1251  16.1490  16.1635  16.1822  16.1983  16.2145
    16.2288  16.2489  16.2597  16.2654  16.2780  16.2877  16.3338  16.3602
    16.3650  16.3680  16.4208  16.4275  16.4337  16.4841  16.4929  16.5084
    16.5203  16.5428  16.5555  16.5643  16.5733  16.5799  16.5881  16.5883
    16.6105  16.6118  16.6194  16.6232  16.6461  16.6598  16.6648  16.6740
    16.6913  16.7168  16.7208  16.7530  16.7840  16.8120  16.8317  16.8429
    16.8497  16.8711  16.8826  16.8854  16.8979  16.9007  16.9187  16.9290
    16.9356  16.9430  16.9536  16.9691  16.9775  16.9814  16.9980  17.0077
    17.0171  17.0203  17.0288  17.0477  17.0509  17.0533  17.0729  17.0882
    17.0980  17.1026  17.1221  17.1292  17.1382  17.1485  17.1573  17.1677
    17.1781  17.1925  17.2015  17.2118  17.2130  17.2320  17.2350  17.2526
    17.2565  17.2643  17.2721  17.2811  17.3043  17.3206  17.3230  17.3352
    17.3416  17.3584  17.3950  17.4169  17.4235  17.4368  17.4379  17.4487
    17.4561  17.4664  17.4693  17.4770  17.4870  17.4963  17.5003  17.5060
    17.5228  17.5245  17.5289  17.5407  17.5458  17.5510  17.5547  17.5673
    17.5818  17.5911  17.5948  17.6047  17.6148  17.6172  17.6236  17.6389
    17.6438  17.6535  17.6747  17.6812  17.6969  17.7080  17.7297  17.7439
    17.7591  17.7649  17.7796  17.7870  17.8851  17.8960  17.9131  17.9697
    18.0017  18.0210  18.0239  18.0363  18.0550  18.0585  18.0641  18.0792
    18.0956  18.1107  18.1260  18.1334  18.1368  18.1416  18.1476  18.1666
    18.1744  18.1862  18.1944  18.2089  18.2224  18.2389  18.2431  18.2528
    18.2571  18.2694  18.2777  18.3044  18.3096  18.3131  18.3598  18.3997
    18.4161  18.4561  18.4812  18.4902  18.4957  18.5186  18.5263  18.5389
    18.5464  18.5533  18.5639  18.5699  18.5852  18.5928  18.6090  18.6224
    18.6338  18.6513  18.6711  18.6860  18.7192  18.7307  18.7471  18.7601
    18.8141  18.8318  18.8453  18.8508  18.8618  18.8855  18.9070  18.9162
    18.9230  18.9288  18.9540  18.9583  18.9596  18.9726  18.9841  18.9897
    18.9944  19.0057  19.0195  19.0444  19.0652  19.0775  19.0862  19.0983

     highest occupied, lowest unoccupied level (ev):     7.6837    8.4610

!    total energy              =  -37799.93134220 Ry
     estimated scf accuracy    <       0.00000417 Ry

     The total energy is the sum of the following terms:
     one-electron contribution =  -19607.62067139 Ry
     hartree contribution      =   11801.92560530 Ry
     xc contribution           =   -9549.34541680 Ry
     ewald contribution        =  -20443.14982079 Ry
     Hubbard energy            =      -1.74103851 Ry

     convergence has been achieved in  12 iterations

     Writing all to output data dir ./tmp_In0.0Ga1.0As0.5Sb0.5_cube_3x3x3.2/In0.0Ga1.0As0.5Sb0.5_cube_3x3x3.2.save/ :
     XML data file, charge density, pseudopotentials, collected wavefunctions

     init_run     :    289.89s CPU    292.70s WALL (       1 calls)
     electrons    :  10811.79s CPU  10842.16s WALL (       1 calls)

     Called by init_run:
     wfcinit      :    281.85s CPU    284.44s WALL (       1 calls)
     potinit      :      0.43s CPU      0.51s WALL (       1 calls)
     hinit0       :      1.75s CPU      1.79s WALL (       1 calls)

     Called by electrons:
     c_bands      :  10398.27s CPU  10427.23s WALL (      13 calls)
     sum_band     :    407.51s CPU    408.08s WALL (      13 calls)
     v_of_rho     :      4.61s CPU      4.80s WALL (      13 calls)
     mix_rho      :      0.63s CPU      0.63s WALL (      13 calls)

     Called by c_bands:
     init_us_2    :     41.48s CPU     42.18s WALL (      28 calls)
     cegterg      :  10131.16s CPU  10158.75s WALL (      13 calls)

     Called by *egterg:
     cdiaghg      :    729.17s CPU    730.07s WALL (     101 calls)
     h_psi        :   6205.06s CPU   6223.22s WALL (     103 calls)
     g_psi        :      4.95s CPU      4.96s WALL (      89 calls)

     Called by h_psi:
     h_psi:calbec :   1041.55s CPU   1041.64s WALL (     103 calls)
     vloc_psi     :   1103.06s CPU   1104.68s WALL (     103 calls)
     add_vuspsi   :   1048.74s CPU   1051.21s WALL (     103 calls)
     vhpsi        :   3002.59s CPU   3002.87s WALL (     103 calls)

     General routines
     calbec       :   1338.57s CPU   1338.69s WALL (     220 calls)
     fft          :      3.84s CPU      4.04s WALL (     131 calls)
     ffts         :      0.27s CPU      0.27s WALL (      13 calls)
     fftw         :   1167.19s CPU   1168.94s WALL (  161542 calls)

     Parallel routines

     Hubbard U routines
     new_ns       :     73.72s CPU     73.73s WALL (      13 calls)
     vhpsi        :   3002.59s CPU   3002.87s WALL (     103 calls)

     PWSCF        :      3h 5m CPU      3h 7m WALL


   This run was terminated on:  23:57:31  15May2025            

=------------------------------------------------------------------------------=
   JOB DONE.
=------------------------------------------------------------------------------=
