
     Program PWSCF v.7.3.1 starts on 29Mar2025 at 14:36:27 

     This program is part of the open-source Quantum ESPRESSO suite
     for quantum simulation of materials; please cite
         "P. Giannozzi et al., J. Phys.:Condens. Matter 21 395502 (2009);
         "P. Giannozzi et al., J. Phys.:Condens. Matter 29 465901 (2017);
         "P. Giannozzi et al., J. Chem. Phys. 152 154105 (2020);
          URL http://www.quantum-espresso.org", 
     in publications or presentations arising from this work. More details at
     http://www.quantum-espresso.org/quote

     Parallel version (MPI), running on    32 processors

     MPI processes distributed on     1 nodes
     243573 MiB available memory on the printing compute node when the environment starts

     Reading input from InSb.scf.in
Warning: card &CELL ignored
Warning: card / ignored

     Current dimensions of program PWSCF are:
     Max number of different atomic species (ntypx) = 50
     Max number of k-points (npk) =  40000
     Max angular momentum in pseudopotentials (lmaxx) =  4

     R & G space division:  proc/nbgrp/npool/nimage =      32
     Subspace diagonalization in iterative solution of the eigenvalue problem:
     a serial algorithm will be used


     Parallelization info
     --------------------
     sticks:   dense  smooth     PW     G-vecs:    dense   smooth      PW
     Min          78      78     21                 2611     2611     384
     Max          79      79     22                 2615     2615     390
     Sum        2527    2527    703                83659    83659   12387

     Using Slab Decomposition



     bravais-lattice index     =            2
     lattice parameter (alat)  =      12.3485  a.u.
     unit-cell volume          =     470.7451 (a.u.)^3
     number of atoms/cell      =            2
     number of atomic types    =            2
     number of electrons       =        28.00
     number of Kohn-Sham states=           20
     kinetic-energy cutoff     =     120.0000  Ry
     charge density cutoff     =     480.0000  Ry
     scf convergence threshold =      5.0E-07
     mixing beta               =       0.7000
     number of iterations used =            8  plain     mixing
     Exchange-correlation= PBE
                           (   1   4   3   4   0   0   0)
     Hubbard projectors: atomic
     Hubbard parameters of DFT+U (Dudarev formulation) in eV:
     U(In-5p) = -1.1000
     U(Sb-5p) =  3.1600

     Internal variables: lda_plus_u =T, lda_plus_u_kind = 0

     celldm(1)=  12.348530  celldm(2)=   0.000000  celldm(3)=   0.000000
     celldm(4)=   0.000000  celldm(5)=   0.000000  celldm(6)=   0.000000

     crystal axes: (cart. coord. in units of alat)
               a(1) = (  -0.500000   0.000000   0.500000 )  
               a(2) = (   0.000000   0.500000   0.500000 )  
               a(3) = (  -0.500000   0.500000   0.000000 )  

     reciprocal axes: (cart. coord. in units 2 pi/alat)
               b(1) = ( -1.000000 -1.000000  1.000000 )  
               b(2) = (  1.000000  1.000000  1.000000 )  
               b(3) = ( -1.000000  1.000000 -1.000000 )  


     PseudoPot. # 1 for In read from file:
     /work/i254/i254/gentles/data/pseudos/In.pbe.NC-SR.standard.v0.5.UPF
     MD5 check sum: 835f4bf908c982ff75c88e16816a8d7f
     Pseudo is Norm-conserving + core correction, Zval = 13.0
     Generated using ONCVPSP code by D. R. Hamann
     Using radial grid of 1964 points,  6 beta functions with: 
                l(1) =   0
                l(2) =   0
                l(3) =   1
                l(4) =   1
                l(5) =   2
                l(6) =   2

     PseudoPot. # 2 for Sb read from file:
     /work/i254/i254/gentles/data/pseudos/Sb.pbe.NC-SR.standard.v0.5.UPF
     MD5 check sum: 127f69b6101c45666faeae1b5d611565
     Pseudo is Norm-conserving + core correction, Zval = 15.0
     Generated using ONCVPSP code by D. R. Hamann
     Using radial grid of 1434 points,  6 beta functions with: 
                l(1) =   0
                l(2) =   0
                l(3) =   1
                l(4) =   1
                l(5) =   2
                l(6) =   2

     atomic species   valence    mass     pseudopotential
     In               13.00   114.81800     In( 1.00)
     Sb               15.00   121.76000     Sb( 1.00)

     24 Sym. Ops. (no inversion) found



   Cartesian axes

     site n.     atom                  positions (alat units)
         1        In     tau(   1) = (   0.0000000   0.0000000   0.0000000  )
         2        Sb     tau(   2) = (  -0.2500000   0.2500000   0.2500000  )

     number of k points=   145

     Number of k-points >= 100: set verbosity='high' to print them.

     Dense  grid:    83659 G-vectors     FFT dimensions: (  64,  64,  64)

     Estimated max dynamical RAM per process >      24.79 MB

     Estimated total dynamical RAM >     793.24 MB

     Initial potential from superposition of free atoms

     starting charge      27.9955, renormalised to      28.0000

     STARTING HUBBARD OCCUPATIONS:

     =================== HUBBARD OCCUPATIONS ===================
     ------------------------ ATOM    1 ------------------------
     Tr[ns(  1)] =   1.00000
     eigenvalues:
       0.167  0.167  0.167
     eigenvectors (columns):
       1.000  0.000  0.000
       0.000  1.000  0.000
       0.000  0.000  1.000
     occupation matrix ns (before diag.):
       0.167  0.000  0.000
       0.000  0.167  0.000
       0.000  0.000  0.167
     ------------------------ ATOM    2 ------------------------
     Tr[ns(  2)] =   3.00000
     eigenvalues:
       0.500  0.500  0.500
     eigenvectors (columns):
       1.000  0.000  0.000
       0.000  1.000  0.000
       0.000  0.000  1.000
     occupation matrix ns (before diag.):
       0.500  0.000  0.000
       0.000  0.500  0.000
       0.000  0.000  0.500

     Number of occupied Hubbard levels =    4.0000

     Atomic wfc used for Hubbard projectors are NOT orthogonalized

     Starting wfcs are   18 randomized atomic wfcs +    2 random wfcs

     total cpu time spent up to now is        2.7 secs

     per-process dynamical memory:    28.0 Mb

     Self-consistent Calculation

     iteration #  1     ecut=   120.00 Ry     beta= 0.70
     Davidson diagonalization with overlap
     ethr =  1.00E-02,  avg # of iterations =  5.4

     =================== HUBBARD OCCUPATIONS ===================
     ------------------------ ATOM    1 ------------------------
     Tr[ns(  1)] =   4.23322
     eigenvalues:
       0.706  0.706  0.706
     eigenvectors (columns):
      -0.527  0.432  0.732
      -0.727  0.217 -0.652
      -0.440 -0.875  0.199
     occupation matrix ns (before diag.):
       0.706 -0.000  0.000
      -0.000  0.706 -0.000
       0.000 -0.000  0.706
     ------------------------ ATOM    2 ------------------------
     Tr[ns(  2)] =   5.20784
     eigenvalues:
       0.868  0.868  0.868
     eigenvectors (columns):
       0.685 -0.374  0.625
       0.707  0.136 -0.694
       0.175  0.917  0.358
     occupation matrix ns (before diag.):
       0.868 -0.000  0.000
      -0.000  0.868 -0.000
       0.000 -0.000  0.868

     Number of occupied Hubbard levels =    9.4411

     Threshold (ethr) on eigenvalues was too large:
     Diagonalizing with lowered threshold

     Davidson diagonalization with overlap
     ethr =  1.02E-04,  avg # of iterations =  4.9

     total cpu time spent up to now is       14.6 secs

     total energy              =    -314.79719238 Ry
     estimated scf accuracy    <       0.02884608 Ry

     iteration #  2     ecut=   120.00 Ry     beta= 0.70
     Davidson diagonalization with overlap
     ethr =  1.03E-04,  avg # of iterations =  2.0

     total cpu time spent up to now is       19.6 secs

     total energy              =    -314.80258599 Ry
     estimated scf accuracy    <       0.00785142 Ry

     iteration #  3     ecut=   120.00 Ry     beta= 0.70
     Davidson diagonalization with overlap
     ethr =  2.80E-05,  avg # of iterations =  2.3

     total cpu time spent up to now is       24.6 secs

     total energy              =    -314.80395887 Ry
     estimated scf accuracy    <       0.00124768 Ry

     iteration #  4     ecut=   120.00 Ry     beta= 0.70
     Davidson diagonalization with overlap
     ethr =  4.46E-06,  avg # of iterations =  4.1

     total cpu time spent up to now is       30.1 secs

     total energy              =    -314.80428447 Ry
     estimated scf accuracy    <       0.00005123 Ry

     iteration #  5     ecut=   120.00 Ry     beta= 0.70
     Davidson diagonalization with overlap
     ethr =  1.83E-07,  avg # of iterations =  4.8

     total cpu time spent up to now is       36.5 secs

     total energy              =    -314.80430045 Ry
     estimated scf accuracy    <       0.00000898 Ry

     iteration #  6     ecut=   120.00 Ry     beta= 0.70
     Davidson diagonalization with overlap
     ethr =  3.21E-08,  avg # of iterations =  2.1

     total cpu time spent up to now is       41.2 secs

     End of self-consistent calculation

     =================== HUBBARD OCCUPATIONS ===================
     ------------------------ ATOM    1 ------------------------
     Tr[ns(  1)] =   4.13796
     eigenvalues:
       0.690  0.690  0.690
     eigenvectors (columns):
       0.651 -0.400  0.645
       0.731  0.102 -0.675
       0.204  0.911  0.359
     occupation matrix ns (before diag.):
       0.690 -0.000  0.000
      -0.000  0.690 -0.000
       0.000 -0.000  0.690
     ------------------------ ATOM    2 ------------------------
     Tr[ns(  2)] =   5.28979
     eigenvalues:
       0.882  0.882  0.882
     eigenvectors (columns):
       0.589 -0.436  0.680
       0.724 -0.088 -0.684
       0.358  0.896  0.264
     occupation matrix ns (before diag.):
       0.882 -0.000  0.000
      -0.000  0.882 -0.000
       0.000 -0.000  0.882

     Number of occupied Hubbard levels =    9.4278

     Number of k-points >= 100: set verbosity='high' to print the bands.

     highest occupied, lowest unoccupied level (ev):     6.7611    7.0016

!    total energy              =    -314.80430263 Ry
     estimated scf accuracy    <       0.00000024 Ry

     The total energy is the sum of the following terms:
     one-electron contribution =    -147.06846411 Ry
     hartree contribution      =      89.44039370 Ry
     xc contribution           =     -85.58221844 Ry
     ewald contribution        =    -171.61481452 Ry
     Hubbard energy            =       0.02080074 Ry

     convergence has been achieved in   6 iterations

     Writing all to output data dir tmp/scf/InSb.save/ :
     XML data file, charge density, pseudopotentials, collected wavefunctions

     init_run     :      2.11s CPU      2.18s WALL (       1 calls)
     electrons    :     37.12s CPU     38.50s WALL (       1 calls)

     Called by init_run:
     wfcinit      :      1.71s CPU      1.76s WALL (       1 calls)
     potinit      :      0.02s CPU      0.03s WALL (       1 calls)
     hinit0       :      0.32s CPU      0.33s WALL (       1 calls)

     Called by electrons:
     c_bands      :     32.39s CPU     33.63s WALL (       7 calls)
     sum_band     :      4.65s CPU      4.73s WALL (       7 calls)
     v_of_rho     :      0.06s CPU      0.06s WALL (       7 calls)
     mix_rho      :      0.01s CPU      0.01s WALL (       7 calls)

     Called by c_bands:
     init_us_2    :      0.65s CPU      0.68s WALL (    2320 calls)
     cegterg      :     31.05s CPU     31.89s WALL (    1015 calls)

     Called by *egterg:
     cdiaghg      :      3.78s CPU      3.86s WALL (    4585 calls)
     h_psi        :     25.41s CPU     26.13s WALL (    4875 calls)
     g_psi        :      0.07s CPU      0.07s WALL (    3715 calls)

     Called by h_psi:
     h_psi:calbec :      1.03s CPU      1.05s WALL (    4875 calls)
     vloc_psi     :     22.95s CPU     23.62s WALL (    4875 calls)
     add_vuspsi   :      0.75s CPU      0.77s WALL (    4875 calls)
     vhpsi        :      0.52s CPU      0.53s WALL (    4875 calls)

     General routines
     calbec       :      1.49s CPU      1.53s WALL (   10910 calls)
     fft          :      0.32s CPU      0.32s WALL (      71 calls)
     ffts         :      0.00s CPU      0.00s WALL (       7 calls)
     fftw         :     24.11s CPU     24.75s WALL (  128502 calls)

     Parallel routines

     Hubbard U routines
     new_ns       :      0.23s CPU      0.23s WALL (       7 calls)
     vhpsi        :      0.52s CPU      0.53s WALL (    4875 calls)

     PWSCF        :     40.26s CPU     50.10s WALL


   This run was terminated on:  14:37:17  29Mar2025            

=------------------------------------------------------------------------------=
   JOB DONE.
=------------------------------------------------------------------------------=
