
     Program PWSCF v.7.3.1 starts on  7Apr2026 at 19:50:27 

     This program is part of the open-source Quantum ESPRESSO suite
     for quantum simulation of materials; please cite
         "P. Giannozzi et al., J. Phys.:Condens. Matter 21 395502 (2009);
         "P. Giannozzi et al., J. Phys.:Condens. Matter 29 465901 (2017);
         "P. Giannozzi et al., J. Chem. Phys. 152 154105 (2020);
          URL http://www.quantum-espresso.org", 
     in publications or presentations arising from this work. More details at
     http://www.quantum-espresso.org/quote

     Parallel version (MPI), running on   640 processors

     MPI processes distributed on     5 nodes
     481841 MiB available memory on the printing compute node when the environment starts

     Reading input from In1.0Ga0.0As0.75Sb0.25_cube_3x3x3.5.scf.in
Warning: card &CELL ignored
Warning: card   CELL_DOFREE = 'ALL', ignored
Warning: card / ignored

     Current dimensions of program PWSCF are:
     Max number of different atomic species (ntypx) = 10
     Max number of k-points (npk) =  40000
     Max angular momentum in pseudopotentials (lmaxx) =  4

     K-points division:     npool     =       8
     R & G space division:  proc/nbgrp/npool/nimage =      80
     Subspace diagonalization in iterative solution of the eigenvalue problem:
     one sub-group per band group will be used
     custom distributed-memory algorithm (size of sub-group:  8*  8 procs)


     Parallelization info
     --------------------
     sticks:   dense  smooth     PW     G-vecs:    dense   smooth      PW
     Min         589     589    151                96109    96109   12529
     Max         590     590    152                96115    96115   12534
     Sum       47121   47121  12101              7689021  7689021 1002473

     Using Slab Decomposition



     bravais-lattice index     =            1
     lattice parameter (alat)  =      35.1158  a.u.
     unit-cell volume          =   43302.0347 (a.u.)^3
     number of atoms/cell      =          216
     number of atomic types    =            4
     number of electrons       =      3024.00
     number of Kohn-Sham states=         2160
     kinetic-energy cutoff     =     120.0000  Ry
     charge density cutoff     =     480.0000  Ry
     scf convergence threshold =      1.0E-05
     mixing beta               =       0.6500
     number of iterations used =            8  plain     mixing
     Exchange-correlation= PBE
                           (   1   4   3   4   0   0   0)
     Hubbard projectors: atomic
     Hubbard parameters of DFT+U (Dudarev formulation) in eV:
     U(As-4p) =  3.2600
     U(Ga-4p) = -3.2650
     U(In-5p) = -0.9725
     U(Sb-5p) =  3.1600

     Internal variables: lda_plus_u =T, lda_plus_u_kind = 0

     celldm(1)=  35.115816  celldm(2)=   0.000000  celldm(3)=   0.000000
     celldm(4)=   0.000000  celldm(5)=   0.000000  celldm(6)=   0.000000

     crystal axes: (cart. coord. in units of alat)
               a(1) = (   1.000000   0.000000   0.000000 )  
               a(2) = (   0.000000   1.000000   0.000000 )  
               a(3) = (   0.000000   0.000000   1.000000 )  

     reciprocal axes: (cart. coord. in units 2 pi/alat)
               b(1) = (  1.000000  0.000000  0.000000 )  
               b(2) = (  0.000000  1.000000  0.000000 )  
               b(3) = (  0.000000  0.000000  1.000000 )  


     PseudoPot. # 1 for As read from file:
     /work/i254/i254/gentles/data/pseudos/As.pbe.NC-SR.standard.v0.5.UPF
     MD5 check sum: bfe1a874457ce592347346129958e7cf
     Pseudo is Norm-conserving + core correction, Zval = 15.0
     Generated using ONCVPSP code by D. R. Hamann
     Using radial grid of 1358 points,  6 beta functions with: 
                l(1) =   0
                l(2) =   0
                l(3) =   1
                l(4) =   1
                l(5) =   2
                l(6) =   2

     PseudoPot. # 2 for Ga read from file:
     /work/i254/i254/gentles/data/pseudos/Ga.pbe.NC-SR.standard.v0.5.UPF
     MD5 check sum: 2bb81bf6f0a8d9832cf3329850435ecf
     Pseudo is Norm-conserving + core correction, Zval = 13.0
     Generated using ONCVPSP code by D. R. Hamann
     Using radial grid of 1902 points,  6 beta functions with: 
                l(1) =   0
                l(2) =   0
                l(3) =   1
                l(4) =   1
                l(5) =   2
                l(6) =   2

     PseudoPot. # 3 for In read from file:
     /work/i254/i254/gentles/data/pseudos/In.pbe.NC-SR.standard.v0.5.UPF
     MD5 check sum: 835f4bf908c982ff75c88e16816a8d7f
     Pseudo is Norm-conserving + core correction, Zval = 13.0
     Generated using ONCVPSP code by D. R. Hamann
     Using radial grid of 1964 points,  6 beta functions with: 
                l(1) =   0
                l(2) =   0
                l(3) =   1
                l(4) =   1
                l(5) =   2
                l(6) =   2

     PseudoPot. # 4 for Sb read from file:
     /work/i254/i254/gentles/data/pseudos/Sb.pbe.NC-SR.standard.v0.5.UPF
     MD5 check sum: 127f69b6101c45666faeae1b5d611565
     Pseudo is Norm-conserving + core correction, Zval = 15.0
     Generated using ONCVPSP code by D. R. Hamann
     Using radial grid of 1434 points,  6 beta functions with: 
                l(1) =   0
                l(2) =   0
                l(3) =   1
                l(4) =   1
                l(5) =   2
                l(6) =   2

     atomic species   valence    mass     pseudopotential
     As               15.00    74.92160     As( 1.00)
     Ga               13.00    69.72300     Ga( 1.00)
     In               13.00   114.81800     In( 1.00)
     Sb               15.00   121.76000     Sb( 1.00)

     No symmetry found



   Cartesian axes

     site n.     atom                  positions (alat units)
         1        In     tau(   1) = (  -0.0011250   0.0072400  -0.0025970  )
         2        In     tau(   2) = (   0.0048400   0.1626990   0.1654940  )
         3        In     tau(   3) = (   0.1639360  -0.0029990   0.1629270  )
         4        In     tau(   4) = (   0.1644500   0.1702180   0.0020410  )
         5        As     tau(   5) = (   0.0848150   0.0829700   0.0811000  )
         6        Sb     tau(   6) = (   0.0861280   0.2535390   0.2511320  )
         7        Sb     tau(   7) = (   0.2524750   0.0821780   0.2503040  )
         8        As     tau(   8) = (   0.2507790   0.2492870   0.0834600  )
         9        In     tau(   9) = (   0.0005180  -0.0089620   0.3336970  )
        10        In     tau(  10) = (  -0.0000890   0.1657950   0.5101800  )
        11        In     tau(  11) = (   0.1738160  -0.0044080   0.5052420  )
        12        In     tau(  12) = (   0.1724330   0.1712140   0.3401780  )
        13        Sb     tau(  13) = (   0.0846870   0.0803150   0.4208290  )
        14        As     tau(  14) = (   0.0856270   0.2504550   0.5853370  )
        15        As     tau(  15) = (   0.2530080   0.0833340   0.5837620  )
        16        As     tau(  16) = (   0.2539110   0.2531720   0.4203000  )
        17        In     tau(  17) = (   0.0002610   0.0009980   0.6674170  )
        18        In     tau(  18) = (   0.0000510   0.1657740   0.8318760  )
        19        In     tau(  19) = (   0.1682290  -0.0001220   0.8234690  )
        20        In     tau(  20) = (   0.1676210   0.1649060   0.6651900  )
        21        As     tau(  21) = (   0.0829850   0.0846050   0.7473440  )
        22        As     tau(  22) = (   0.0833950   0.2489210   0.9136280  )
        23        Sb     tau(  23) = (   0.2522820   0.0841020   0.9154550  )
        24        As     tau(  24) = (   0.2502120   0.2469360   0.7465470  )
        25        In     tau(  25) = (   0.0055530   0.3363210  -0.0053450  )
        26        In     tau(  26) = (  -0.0034780   0.4979570   0.1624040  )
        27        In     tau(  27) = (   0.1719200   0.3377300   0.1634210  )
        28        In     tau(  28) = (   0.1671870   0.5026000   0.0076900  )
        29        As     tau(  29) = (   0.0837470   0.4169100   0.0832400  )
        30        Sb     tau(  30) = (   0.0839020   0.5826340   0.2503680  )
        31        As     tau(  31) = (   0.2503990   0.4150560   0.2535630  )
        32        As     tau(  32) = (   0.2514880   0.5852790   0.0863590  )
        33        In     tau(  33) = (  -0.0007280   0.3428510   0.3335370  )
        34        In     tau(  34) = (   0.0008290   0.5005430   0.5005330  )
        35        In     tau(  35) = (   0.1661890   0.3331640   0.5004800  )
        36        In     tau(  36) = (   0.1706400   0.4971320   0.3390310  )
        37        As     tau(  37) = (   0.0843210   0.4180190   0.4195140  )
        38        As     tau(  38) = (   0.0864660   0.5801690   0.5833390  )
        39        As     tau(  39) = (   0.2498730   0.4163190   0.5810280  )
        40        As     tau(  40) = (   0.2518960   0.5825720   0.4195190  )
        41        In     tau(  41) = (  -0.0002260   0.3331450   0.6643320  )
        42        In     tau(  42) = (   0.0010300   0.4906400   0.8324260  )
        43        In     tau(  43) = (   0.1647700   0.3278000   0.8269250  )
        44        In     tau(  44) = (   0.1681270   0.4971830   0.6657870  )
        45        As     tau(  45) = (   0.0841230   0.4130100   0.7466710  )
        46        Sb     tau(  46) = (   0.0820810   0.5848580   0.9164340  )
        47        Sb     tau(  47) = (   0.2489730   0.4161870   0.9154620  )
        48        As     tau(  48) = (   0.2495400   0.5854660   0.7443360  )
        49        In     tau(  49) = (  -0.0041520   0.6714810   0.0041420  )
        50        In     tau(  50) = (   0.0021710   0.8285380   0.1723370  )
        51        In     tau(  51) = (   0.1710970   0.6713530   0.1659130  )
        52        In     tau(  52) = (   0.1671320   0.8336230   0.0066690  )
        53        As     tau(  53) = (   0.0833970   0.7500690   0.0862970  )
        54        As     tau(  54) = (   0.0854500   0.9142370   0.2493940  )
        55        As     tau(  55) = (   0.2531120   0.7525370   0.2502010  )
        56        As     tau(  56) = (   0.2520980   0.9158200   0.0859310  )
        57        In     tau(  57) = (  -0.0084780   0.6662580   0.3348440  )
        58        In     tau(  58) = (   0.0013710   0.8424920   0.5003850  )
        59        In     tau(  59) = (   0.1710640   0.6625970   0.5044000  )
        60        In     tau(  60) = (   0.1733460   0.8375190   0.3304930  )
        61        Sb     tau(  61) = (   0.0855380   0.7511160   0.4166860  )
        62        As     tau(  62) = (   0.0853440   0.9189190   0.5862860  )
        63        As     tau(  63) = (   0.2513510   0.7498040   0.5845050  )
        64        As     tau(  64) = (   0.2544540   0.9150490   0.4192150  )
        65        In     tau(  65) = (   0.0095490   0.6673740   0.6642110  )
        66        In     tau(  66) = (  -0.0048280   0.8283820   0.8287290  )
        67        In     tau(  67) = (   0.1670300   0.6682590   0.8248830  )
        68        In     tau(  68) = (   0.1679680   0.8335750   0.6654060  )
        69        As     tau(  69) = (   0.0848140   0.7526360   0.7470170  )
        70        Sb     tau(  70) = (   0.0827990   0.9159600   0.9136780  )
        71        Sb     tau(  71) = (   0.2529820   0.7504440   0.9158440  )
        72        As     tau(  72) = (   0.2521750   0.9170510   0.7447400  )
        73        In     tau(  73) = (   0.3374740  -0.0035120   0.0034540  )
        74        In     tau(  74) = (   0.3388160   0.1688920   0.1632940  )
        75        In     tau(  75) = (   0.5005330  -0.0007370   0.1686170  )
        76        In     tau(  76) = (   0.5011000   0.1641030  -0.0012260  )
        77        As     tau(  77) = (   0.4201450   0.0820970   0.0835730  )
        78        As     tau(  78) = (   0.4184570   0.2487930   0.2522640  )
        79        As     tau(  79) = (   0.5819960   0.0818440   0.2510570  )
        80        As     tau(  80) = (   0.5805510   0.2483720   0.0838730  )
        81        In     tau(  81) = (   0.3388550  -0.0033550   0.3383720  )
        82        In     tau(  82) = (   0.3339560   0.1653010   0.4989950  )
        83        In     tau(  83) = (   0.5009640  -0.0002620   0.5013110  )
        84        In     tau(  84) = (   0.5001170   0.1648540   0.3345250  )
        85        As     tau(  85) = (   0.4188580   0.0825620   0.4186920  )
        86        As     tau(  86) = (   0.4144450   0.2477720   0.5810900  )
        87        As     tau(  87) = (   0.5829240   0.0824320   0.5827210  )
        88        As     tau(  88) = (   0.5810540   0.2479560   0.4189710  )
        89        In     tau(  89) = (   0.3349920  -0.0002190   0.6648020  )
        90        In     tau(  90) = (   0.3386970   0.1693480   0.8271430  )
        91        In     tau(  91) = (   0.4987730   0.0011310   0.8323480  )
        92        In     tau(  92) = (   0.4942900   0.1613420   0.6607630  )
        93        As     tau(  93) = (   0.4163820   0.0811640   0.7476430  )
        94        As     tau(  94) = (   0.4194570   0.2460040   0.9156890  )
        95        As     tau(  95) = (   0.5822470   0.0802630   0.9161120  )
        96        Sb     tau(  96) = (   0.5803580   0.2461450   0.7478560  )
        97        In     tau(  97) = (   0.3342730   0.3237090  -0.0025800  )
        98        In     tau(  98) = (   0.3267830   0.4994040   0.1699940  )
        99        In     tau(  99) = (   0.5044670   0.3301420   0.1731780  )
       100        In     tau( 100) = (   0.4986630   0.5000940  -0.0073860  )
       101        Sb     tau( 101) = (   0.4163190   0.4139820   0.0843420  )
       102        Sb     tau( 102) = (   0.4150910   0.5847180   0.2540790  )
       103        As     tau( 103) = (   0.5848700   0.4161040   0.2543600  )
       104        Sb     tau( 104) = (   0.5842740   0.5836380   0.0825660  )
       105        In     tau( 105) = (   0.3357640   0.3329310   0.3338630  )
       106        In     tau( 106) = (   0.3349600   0.4994290   0.4998520  )
       107        In     tau( 107) = (   0.4975930   0.3304570   0.4997920  )
       108        In     tau( 108) = (   0.5030850   0.4971390   0.3380700  )
       109        As     tau( 109) = (   0.4173410   0.4152580   0.4178700  )
       110        As     tau( 110) = (   0.4167250   0.5848290   0.5804170  )
       111        As     tau( 111) = (   0.5823980   0.4149840   0.5774990  )
       112        As     tau( 112) = (   0.5829960   0.5834920   0.4184060  )
       113        In     tau( 113) = (   0.3286130   0.3287580   0.6612980  )
       114        In     tau( 114) = (   0.3317770   0.5096940   0.8314610  )
       115        In     tau( 115) = (   0.5013500   0.3334280   0.8400700  )
       116        In     tau( 116) = (   0.5000850   0.4987770   0.6576100  )
       117        Sb     tau( 117) = (   0.4147690   0.4159890   0.7485030  )
       118        As     tau( 118) = (   0.4170760   0.5868540   0.9153610  )
       119        As     tau( 119) = (   0.5846500   0.4161670   0.9192100  )
       120        Sb     tau( 120) = (   0.5819620   0.5849780   0.7493940  )
       121        In     tau( 121) = (   0.3375840   0.6635710   0.0040820  )
       122        In     tau( 122) = (   0.3353160   0.8347220   0.1688340  )
       123        In     tau( 123) = (   0.4955140   0.6721900   0.1635700  )
       124        In     tau( 124) = (   0.4998610   0.8348050   0.0007180  )
       125        As     tau( 125) = (   0.4149950   0.7540900   0.0822790  )
       126        As     tau( 126) = (   0.4181100   0.9166660   0.2514530  )
       127        Sb     tau( 127) = (   0.5843820   0.7521390   0.2519000  )
       128        As     tau( 128) = (   0.5823380   0.9175440   0.0833220  )
       129        In     tau( 129) = (   0.3295340   0.6718440   0.3397610  )
       130        In     tau( 130) = (   0.3345240   0.8327850   0.5031290  )
       131        In     tau( 131) = (   0.4993610   0.6679010   0.4983850  )
       132        In     tau( 132) = (   0.4970570   0.8370860   0.3386290  )
       133        As     tau( 133) = (   0.4157070   0.7521700   0.4195640  )
       134        As     tau( 134) = (   0.4177840   0.9170040   0.5831790  )
       135        As     tau( 135) = (   0.5819990   0.7518640   0.5798090  )
       136        As     tau( 136) = (   0.5823850   0.9177510   0.4186400  )
       137        In     tau( 137) = (   0.3355120   0.6679430   0.6653210  )
       138        In     tau( 138) = (   0.3373720   0.8396980   0.8292070  )
       139        In     tau( 139) = (   0.4966030   0.6743980   0.8355400  )
       140        In     tau( 140) = (   0.5008990   0.8342060   0.6649670  )
       141        As     tau( 141) = (   0.4169230   0.7533590   0.7477400  )
       142        As     tau( 142) = (   0.4191770   0.9177390   0.9163320  )
       143        As     tau( 143) = (   0.5821180   0.7536850   0.9181610  )
       144        As     tau( 144) = (   0.5804930   0.9194830   0.7481630  )
       145        In     tau( 145) = (   0.6639610  -0.0018040  -0.0012750  )
       146        In     tau( 146) = (   0.6609800   0.1619980   0.1626770  )
       147        In     tau( 147) = (   0.8227410  -0.0022010   0.1672740  )
       148        In     tau( 148) = (   0.8312190   0.1584700   0.0009480  )
       149        As     tau( 149) = (   0.7445970   0.0796560   0.0822570  )
       150        Sb     tau( 150) = (   0.7455940   0.2495830   0.2505190  )
       151        Sb     tau( 151) = (   0.9148270   0.0798250   0.2505670  )
       152        Sb     tau( 152) = (   0.9185210   0.2501260   0.0814230  )
       153        In     tau( 153) = (   0.6637710  -0.0009280   0.3344340  )
       154        In     tau( 154) = (   0.6650600   0.1657440   0.5007210  )
       155        In     tau( 155) = (   0.8317840   0.0010180   0.4999800  )
       156        In     tau( 156) = (   0.8285630   0.1627500   0.3394640  )
       157        As     tau( 157) = (   0.7455790   0.0807080   0.4191470  )
       158        As     tau( 158) = (   0.7490420   0.2481930   0.5824530  )
       159        As     tau( 159) = (   0.9139360   0.0817170   0.5863110  )
       160        Sb     tau( 160) = (   0.9164550   0.2522810   0.4204090  )
       161        In     tau( 161) = (   0.6654110   0.0000380   0.6653060  )
       162        In     tau( 162) = (   0.6663020   0.1569130   0.8313410  )
       163        In     tau( 163) = (   0.8333380  -0.0015330   0.8326400  )
       164        In     tau( 164) = (   0.8315510   0.1662960   0.6674270  )
       165        As     tau( 165) = (   0.7509880   0.0793770   0.7481500  )
       166        Sb     tau( 166) = (   0.7477230   0.2489130   0.9171210  )
       167        As     tau( 167) = (   0.9148010   0.0838690   0.9132580  )
       168        As     tau( 168) = (   0.9192610   0.2480050   0.7471500  )
       169        In     tau( 169) = (   0.6633530   0.3360270   0.0069960  )
       170        In     tau( 170) = (   0.6696440   0.4979080   0.1728430  )
       171        In     tau( 171) = (   0.8333530   0.3387020   0.1677350  )
       172        In     tau( 172) = (   0.8327450   0.5006340   0.0006600  )
       173        As     tau( 173) = (   0.7499930   0.4189940   0.0852340  )
       174        As     tau( 174) = (   0.7514900   0.5831750   0.2525750  )
       175        As     tau( 175) = (   0.9149400   0.4207160   0.2499760  )
       176        As     tau( 176) = (   0.9140040   0.5845020   0.0835640  )
       177        In     tau( 177) = (   0.6623980   0.3351590   0.3408610  )
       178        In     tau( 178) = (   0.6646720   0.5001870   0.4985500  )
       179        In     tau( 179) = (   0.8282090   0.3377350   0.5042060  )
       180        In     tau( 180) = (   0.8326730   0.4998030   0.3347390  )
       181        As     tau( 181) = (   0.7483160   0.4185870   0.4181060  )
       182        As     tau( 182) = (   0.7475630   0.5837430   0.5776180  )
       183        As     tau( 183) = (   0.9174710   0.4173070   0.5816820  )
       184        As     tau( 184) = (   0.9147260   0.5807970   0.4182230  )
       185        In     tau( 185) = (   0.6643030   0.3320280   0.6592900  )
       186        In     tau( 186) = (   0.6674840   0.5000240   0.8394660  )
       187        In     tau( 187) = (   0.8413470   0.3308120   0.8325770  )
       188        In     tau( 188) = (   0.8332510   0.5031890   0.6569750  )
       189        Sb     tau( 189) = (   0.7516440   0.4163570   0.7474970  )
       190        As     tau( 190) = (   0.7501280   0.5835970   0.9196530  )
       191        As     tau( 191) = (   0.9167980   0.4161730   0.9179500  )
       192        Sb     tau( 192) = (   0.9194720   0.5831100   0.7483400  )
       193        In     tau( 193) = (   0.6695920   0.6720780  -0.0025300  )
       194        In     tau( 194) = (   0.6693580   0.8371250   0.1629150  )
       195        In     tau( 195) = (   0.8309490   0.6668850   0.1667980  )
       196        In     tau( 196) = (   0.8296510   0.8320960  -0.0054660  )
       197        As     tau( 197) = (   0.7511160   0.7518190   0.0821510  )
       198        As     tau( 198) = (   0.7464140   0.9159800   0.2528980  )
       199        As     tau( 199) = (   0.9123920   0.7496260   0.2510870  )
       200        Sb     tau( 200) = (   0.9160540   0.9158550   0.0836030  )
       201        In     tau( 201) = (   0.6690080   0.6628600   0.3370090  )
       202        In     tau( 202) = (   0.6660900   0.8339510   0.4988570  )
       203        In     tau( 203) = (   0.8297310   0.6648190   0.4954640  )
       204        In     tau( 204) = (   0.8309380   0.8332160   0.3340550  )
       205        As     tau( 205) = (   0.7485790   0.7503640   0.4163600  )
       206        As     tau( 206) = (   0.7475270   0.9188000   0.5811510  )
       207        Sb     tau( 207) = (   0.9164490   0.7514440   0.5823520  )
       208        As     tau( 208) = (   0.9133410   0.9166760   0.4171490  )
       209        In     tau( 209) = (   0.6668010   0.6685380   0.6580850  )
       210        In     tau( 210) = (   0.6594390   0.8397560   0.8353060  )
       211        In     tau( 211) = (   0.8330720   0.6648280   0.8388590  )
       212        In     tau( 212) = (   0.8320840   0.8427320   0.6662870  )
       213        Sb     tau( 213) = (   0.7480710   0.7531140   0.7513740  )
       214        As     tau( 214) = (   0.7475760   0.9181330   0.9153050  )
       215        As     tau( 215) = (   0.9148030   0.7498100   0.9166970  )
       216        As     tau( 216) = (   0.9174540   0.9185190   0.7497910  )

     number of k points=     8
                       cart. coord. in units 2pi/alat
        k(    1) = (   0.0000000   0.0000000   0.0000000), wk =   0.2500000
        k(    2) = (   0.0000000   0.0000000  -0.5000000), wk =   0.2500000
        k(    3) = (   0.0000000  -0.5000000  -0.5000000), wk =   0.2500000
        k(    4) = (  -0.5000000  -0.5000000  -0.5000000), wk =   0.2500000
        k(    5) = (  -0.5000000   0.0000000   0.0000000), wk =   0.2500000
        k(    6) = (   0.0000000  -0.5000000   0.0000000), wk =   0.2500000
        k(    7) = (  -0.5000000   0.0000000   0.5000000), wk =   0.2500000
        k(    8) = (  -0.5000000   0.5000000   0.0000000), wk =   0.2500000

     Dense  grid:  7689021 G-vectors     FFT dimensions: ( 250, 250, 250)

     Estimated max dynamical RAM per process >       2.96 GB

     Estimated total dynamical RAM >    1878.46 GB

     Initial potential from superposition of free atoms

     starting charge    3023.5448, renormalised to    3024.0000

     STARTING HUBBARD OCCUPATIONS:

     =================== HUBBARD OCCUPATIONS ===================
     ------------------------ ATOM    1 ------------------------
     Tr[ns(  1)] =   1.00000
     eigenvalues:
       0.167  0.167  0.167
     eigenvectors (columns):
       1.000  0.000  0.000
       0.000  1.000  0.000
       0.000  0.000  1.000
     occupation matrix ns (before diag.):
       0.167  0.000  0.000
       0.000  0.167  0.000
       0.000  0.000  0.167
     ------------------------ ATOM    2 ------------------------
     Tr[ns(  2)] =   1.00000
     eigenvalues:
       0.167  0.167  0.167
     eigenvectors (columns):
       1.000  0.000  0.000
       0.000  1.000  0.000
       0.000  0.000  1.000
     occupation matrix ns (before diag.):
       0.167  0.000  0.000
       0.000  0.167  0.000
       0.000  0.000  0.167
     ------------------------ ATOM    3 ------------------------
     Tr[ns(  3)] =   1.00000
     eigenvalues:
       0.167  0.167  0.167
     eigenvectors (columns):
       1.000  0.000  0.000
       0.000  1.000  0.000
       0.000  0.000  1.000
     occupation matrix ns (before diag.):
       0.167  0.000  0.000
       0.000  0.167  0.000
       0.000  0.000  0.167
     ------------------------ ATOM    4 ------------------------
     Tr[ns(  4)] =   1.00000
     eigenvalues:
       0.167  0.167  0.167
     eigenvectors (columns):
       1.000  0.000  0.000
       0.000  1.000  0.000
       0.000  0.000  1.000
     occupation matrix ns (before diag.):
       0.167  0.000  0.000
       0.000  0.167  0.000
       0.000  0.000  0.167
     ------------------------ ATOM    5 ------------------------
     Tr[ns(  5)] =   3.00000
     eigenvalues:
       0.500  0.500  0.500
     eigenvectors (columns):
       1.000  0.000  0.000
       0.000  1.000  0.000
       0.000  0.000  1.000
     occupation matrix ns (before diag.):
       0.500  0.000  0.000
       0.000  0.500  0.000
       0.000  0.000  0.500
     ------------------------ ATOM    6 ------------------------
     Tr[ns(  6)] =   3.00000
     eigenvalues:
       0.500  0.500  0.500
     eigenvectors (columns):
       1.000  0.000  0.000
       0.000  1.000  0.000
       0.000  0.000  1.000
     occupation matrix ns (before diag.):
       0.500  0.000  0.000
       0.000  0.500  0.000
       0.000  0.000  0.500
     ------------------------ ATOM    7 ------------------------
     Tr[ns(  7)] =   3.00000
     eigenvalues:
       0.500  0.500  0.500
     eigenvectors (columns):
       1.000  0.000  0.000
       0.000  1.000  0.000
       0.000  0.000  1.000
     occupation matrix ns (before diag.):
       0.500  0.000  0.000
       0.000  0.500  0.000
       0.000  0.000  0.500
     ------------------------ ATOM    8 ------------------------
     Tr[ns(  8)] =   3.00000
     eigenvalues:
       0.500  0.500  0.500
     eigenvectors (columns):
       1.000  0.000  0.000
       0.000  1.000  0.000
       0.000  0.000  1.000
     occupation matrix ns (before diag.):
       0.500  0.000  0.000
       0.000  0.500  0.000
       0.000  0.000  0.500
     ------------------------ ATOM    9 ------------------------
     Tr[ns(  9)] =   1.00000
     eigenvalues:
       0.167  0.167  0.167
     eigenvectors (columns):
       1.000  0.000  0.000
       0.000  1.000  0.000
       0.000  0.000  1.000
     occupation matrix ns (before diag.):
       0.167  0.000  0.000
       0.000  0.167  0.000
       0.000  0.000  0.167
     ------------------------ ATOM   10 ------------------------
     Tr[ns( 10)] =   1.00000
     eigenvalues:
       0.167  0.167  0.167
     eigenvectors (columns):
       1.000  0.000  0.000
       0.000  1.000  0.000
       0.000  0.000  1.000
     occupation matrix ns (before diag.):
       0.167  0.000  0.000
       0.000  0.167  0.000
       0.000  0.000  0.167
     ------------------------ ATOM   11 ------------------------
     Tr[ns( 11)] =   1.00000
     eigenvalues:
       0.167  0.167  0.167
     eigenvectors (columns):
       1.000  0.000  0.000
       0.000  1.000  0.000
       0.000  0.000  1.000
     occupation matrix ns (before diag.):
       0.167  0.000  0.000
       0.000  0.167  0.000
       0.000  0.000  0.167
     ------------------------ ATOM   12 ------------------------
     Tr[ns( 12)] =   1.00000
     eigenvalues:
       0.167  0.167  0.167
     eigenvectors (columns):
       1.000  0.000  0.000
       0.000  1.000  0.000
       0.000  0.000  1.000
     occupation matrix ns (before diag.):
       0.167  0.000  0.000
       0.000  0.167  0.000
       0.000  0.000  0.167
     ------------------------ ATOM   13 ------------------------
     Tr[ns( 13)] =   3.00000
     eigenvalues:
       0.500  0.500  0.500
     eigenvectors (columns):
       1.000  0.000  0.000
       0.000  1.000  0.000
       0.000  0.000  1.000
     occupation matrix ns (before diag.):
       0.500  0.000  0.000
       0.000  0.500  0.000
       0.000  0.000  0.500
     ------------------------ ATOM   14 ------------------------
     Tr[ns( 14)] =   3.00000
     eigenvalues:
       0.500  0.500  0.500
     eigenvectors (columns):
       1.000  0.000  0.000
       0.000  1.000  0.000
       0.000  0.000  1.000
     occupation matrix ns (before diag.):
       0.500  0.000  0.000
       0.000  0.500  0.000
       0.000  0.000  0.500
     ------------------------ ATOM   15 ------------------------
     Tr[ns( 15)] =   3.00000
     eigenvalues:
       0.500  0.500  0.500
     eigenvectors (columns):
       1.000  0.000  0.000
       0.000  1.000  0.000
       0.000  0.000  1.000
     occupation matrix ns (before diag.):
       0.500  0.000  0.000
       0.000  0.500  0.000
       0.000  0.000  0.500
     ------------------------ ATOM   16 ------------------------
     Tr[ns( 16)] =   3.00000
     eigenvalues:
       0.500  0.500  0.500
     eigenvectors (columns):
       1.000  0.000  0.000
       0.000  1.000  0.000
       0.000  0.000  1.000
     occupation matrix ns (before diag.):
       0.500  0.000  0.000
       0.000  0.500  0.000
       0.000  0.000  0.500
     ------------------------ ATOM   17 ------------------------
     Tr[ns( 17)] =   1.00000
     eigenvalues:
       0.167  0.167  0.167
     eigenvectors (columns):
       1.000  0.000  0.000
       0.000  1.000  0.000
       0.000  0.000  1.000
     occupation matrix ns (before diag.):
       0.167  0.000  0.000
       0.000  0.167  0.000
       0.000  0.000  0.167
     ------------------------ ATOM   18 ------------------------
     Tr[ns( 18)] =   1.00000
     eigenvalues:
       0.167  0.167  0.167
     eigenvectors (columns):
       1.000  0.000  0.000
       0.000  1.000  0.000
       0.000  0.000  1.000
     occupation matrix ns (before diag.):
       0.167  0.000  0.000
       0.000  0.167  0.000
       0.000  0.000  0.167
     ------------------------ ATOM   19 ------------------------
     Tr[ns( 19)] =   1.00000
     eigenvalues:
       0.167  0.167  0.167
     eigenvectors (columns):
       1.000  0.000  0.000
       0.000  1.000  0.000
       0.000  0.000  1.000
     occupation matrix ns (before diag.):
       0.167  0.000  0.000
       0.000  0.167  0.000
       0.000  0.000  0.167
     ------------------------ ATOM   20 ------------------------
     Tr[ns( 20)] =   1.00000
     eigenvalues:
       0.167  0.167  0.167
     eigenvectors (columns):
       1.000  0.000  0.000
       0.000  1.000  0.000
       0.000  0.000  1.000
     occupation matrix ns (before diag.):
       0.167  0.000  0.000
       0.000  0.167  0.000
       0.000  0.000  0.167
     ------------------------ ATOM   21 ------------------------
     Tr[ns( 21)] =   3.00000
     eigenvalues:
       0.500  0.500  0.500
     eigenvectors (columns):
       1.000  0.000  0.000
       0.000  1.000  0.000
       0.000  0.000  1.000
     occupation matrix ns (before diag.):
       0.500  0.000  0.000
       0.000  0.500  0.000
       0.000  0.000  0.500
     ------------------------ ATOM   22 ------------------------
     Tr[ns( 22)] =   3.00000
     eigenvalues:
       0.500  0.500  0.500
     eigenvectors (columns):
       1.000  0.000  0.000
       0.000  1.000  0.000
       0.000  0.000  1.000
     occupation matrix ns (before diag.):
       0.500  0.000  0.000
       0.000  0.500  0.000
       0.000  0.000  0.500
     ------------------------ ATOM   23 ------------------------
     Tr[ns( 23)] =   3.00000
     eigenvalues:
       0.500  0.500  0.500
     eigenvectors (columns):
       1.000  0.000  0.000
       0.000  1.000  0.000
       0.000  0.000  1.000
     occupation matrix ns (before diag.):
       0.500  0.000  0.000
       0.000  0.500  0.000
       0.000  0.000  0.500
     ------------------------ ATOM   24 ------------------------
     Tr[ns( 24)] =   3.00000
     eigenvalues:
       0.500  0.500  0.500
     eigenvectors (columns):
       1.000  0.000  0.000
       0.000  1.000  0.000
       0.000  0.000  1.000
     occupation matrix ns (before diag.):
       0.500  0.000  0.000
       0.000  0.500  0.000
       0.000  0.000  0.500
     ------------------------ ATOM   25 ------------------------
     Tr[ns( 25)] =   1.00000
     eigenvalues:
       0.167  0.167  0.167
     eigenvectors (columns):
       1.000  0.000  0.000
       0.000  1.000  0.000
       0.000  0.000  1.000
     occupation matrix ns (before diag.):
       0.167  0.000  0.000
       0.000  0.167  0.000
       0.000  0.000  0.167
     ------------------------ ATOM   26 ------------------------
     Tr[ns( 26)] =   1.00000
     eigenvalues:
       0.167  0.167  0.167
     eigenvectors (columns):
       1.000  0.000  0.000
       0.000  1.000  0.000
       0.000  0.000  1.000
     occupation matrix ns (before diag.):
       0.167  0.000  0.000
       0.000  0.167  0.000
       0.000  0.000  0.167
     ------------------------ ATOM   27 ------------------------
     Tr[ns( 27)] =   1.00000
     eigenvalues:
       0.167  0.167  0.167
     eigenvectors (columns):
       1.000  0.000  0.000
       0.000  1.000  0.000
       0.000  0.000  1.000
     occupation matrix ns (before diag.):
       0.167  0.000  0.000
       0.000  0.167  0.000
       0.000  0.000  0.167
     ------------------------ ATOM   28 ------------------------
     Tr[ns( 28)] =   1.00000
     eigenvalues:
       0.167  0.167  0.167
     eigenvectors (columns):
       1.000  0.000  0.000
       0.000  1.000  0.000
       0.000  0.000  1.000
     occupation matrix ns (before diag.):
       0.167  0.000  0.000
       0.000  0.167  0.000
       0.000  0.000  0.167
     ------------------------ ATOM   29 ------------------------
     Tr[ns( 29)] =   3.00000
     eigenvalues:
       0.500  0.500  0.500
     eigenvectors (columns):
       1.000  0.000  0.000
       0.000  1.000  0.000
       0.000  0.000  1.000
     occupation matrix ns (before diag.):
       0.500  0.000  0.000
       0.000  0.500  0.000
       0.000  0.000  0.500
     ------------------------ ATOM   30 ------------------------
     Tr[ns( 30)] =   3.00000
     eigenvalues:
       0.500  0.500  0.500
     eigenvectors (columns):
       1.000  0.000  0.000
       0.000  1.000  0.000
       0.000  0.000  1.000
     occupation matrix ns (before diag.):
       0.500  0.000  0.000
       0.000  0.500  0.000
       0.000  0.000  0.500
     ------------------------ ATOM   31 ------------------------
     Tr[ns( 31)] =   3.00000
     eigenvalues:
       0.500  0.500  0.500
     eigenvectors (columns):
       1.000  0.000  0.000
       0.000  1.000  0.000
       0.000  0.000  1.000
     occupation matrix ns (before diag.):
       0.500  0.000  0.000
       0.000  0.500  0.000
       0.000  0.000  0.500
     ------------------------ ATOM   32 ------------------------
     Tr[ns( 32)] =   3.00000
     eigenvalues:
       0.500  0.500  0.500
     eigenvectors (columns):
       1.000  0.000  0.000
       0.000  1.000  0.000
       0.000  0.000  1.000
     occupation matrix ns (before diag.):
       0.500  0.000  0.000
       0.000  0.500  0.000
       0.000  0.000  0.500
     ------------------------ ATOM   33 ------------------------
     Tr[ns( 33)] =   1.00000
     eigenvalues:
       0.167  0.167  0.167
     eigenvectors (columns):
       1.000  0.000  0.000
       0.000  1.000  0.000
       0.000  0.000  1.000
     occupation matrix ns (before diag.):
       0.167  0.000  0.000
       0.000  0.167  0.000
       0.000  0.000  0.167
     ------------------------ ATOM   34 ------------------------
     Tr[ns( 34)] =   1.00000
     eigenvalues:
       0.167  0.167  0.167
     eigenvectors (columns):
       1.000  0.000  0.000
       0.000  1.000  0.000
       0.000  0.000  1.000
     occupation matrix ns (before diag.):
       0.167  0.000  0.000
       0.000  0.167  0.000
       0.000  0.000  0.167
     ------------------------ ATOM   35 ------------------------
     Tr[ns( 35)] =   1.00000
     eigenvalues:
       0.167  0.167  0.167
     eigenvectors (columns):
       1.000  0.000  0.000
       0.000  1.000  0.000
       0.000  0.000  1.000
     occupation matrix ns (before diag.):
       0.167  0.000  0.000
       0.000  0.167  0.000
       0.000  0.000  0.167
     ------------------------ ATOM   36 ------------------------
     Tr[ns( 36)] =   1.00000
     eigenvalues:
       0.167  0.167  0.167
     eigenvectors (columns):
       1.000  0.000  0.000
       0.000  1.000  0.000
       0.000  0.000  1.000
     occupation matrix ns (before diag.):
       0.167  0.000  0.000
       0.000  0.167  0.000
       0.000  0.000  0.167
     ------------------------ ATOM   37 ------------------------
     Tr[ns( 37)] =   3.00000
     eigenvalues:
       0.500  0.500  0.500
     eigenvectors (columns):
       1.000  0.000  0.000
       0.000  1.000  0.000
       0.000  0.000  1.000
     occupation matrix ns (before diag.):
       0.500  0.000  0.000
       0.000  0.500  0.000
       0.000  0.000  0.500
     ------------------------ ATOM   38 ------------------------
     Tr[ns( 38)] =   3.00000
     eigenvalues:
       0.500  0.500  0.500
     eigenvectors (columns):
       1.000  0.000  0.000
       0.000  1.000  0.000
       0.000  0.000  1.000
     occupation matrix ns (before diag.):
       0.500  0.000  0.000
       0.000  0.500  0.000
       0.000  0.000  0.500
     ------------------------ ATOM   39 ------------------------
     Tr[ns( 39)] =   3.00000
     eigenvalues:
       0.500  0.500  0.500
     eigenvectors (columns):
       1.000  0.000  0.000
       0.000  1.000  0.000
       0.000  0.000  1.000
     occupation matrix ns (before diag.):
       0.500  0.000  0.000
       0.000  0.500  0.000
       0.000  0.000  0.500
     ------------------------ ATOM   40 ------------------------
     Tr[ns( 40)] =   3.00000
     eigenvalues:
       0.500  0.500  0.500
     eigenvectors (columns):
       1.000  0.000  0.000
       0.000  1.000  0.000
       0.000  0.000  1.000
     occupation matrix ns (before diag.):
       0.500  0.000  0.000
       0.000  0.500  0.000
       0.000  0.000  0.500
     ------------------------ ATOM   41 ------------------------
     Tr[ns( 41)] =   1.00000
     eigenvalues:
       0.167  0.167  0.167
     eigenvectors (columns):
       1.000  0.000  0.000
       0.000  1.000  0.000
       0.000  0.000  1.000
     occupation matrix ns (before diag.):
       0.167  0.000  0.000
       0.000  0.167  0.000
       0.000  0.000  0.167
     ------------------------ ATOM   42 ------------------------
     Tr[ns( 42)] =   1.00000
     eigenvalues:
       0.167  0.167  0.167
     eigenvectors (columns):
       1.000  0.000  0.000
       0.000  1.000  0.000
       0.000  0.000  1.000
     occupation matrix ns (before diag.):
       0.167  0.000  0.000
       0.000  0.167  0.000
       0.000  0.000  0.167
     ------------------------ ATOM   43 ------------------------
     Tr[ns( 43)] =   1.00000
     eigenvalues:
       0.167  0.167  0.167
     eigenvectors (columns):
       1.000  0.000  0.000
       0.000  1.000  0.000
       0.000  0.000  1.000
     occupation matrix ns (before diag.):
       0.167  0.000  0.000
       0.000  0.167  0.000
       0.000  0.000  0.167
     ------------------------ ATOM   44 ------------------------
     Tr[ns( 44)] =   1.00000
     eigenvalues:
       0.167  0.167  0.167
     eigenvectors (columns):
       1.000  0.000  0.000
       0.000  1.000  0.000
       0.000  0.000  1.000
     occupation matrix ns (before diag.):
       0.167  0.000  0.000
       0.000  0.167  0.000
       0.000  0.000  0.167
     ------------------------ ATOM   45 ------------------------
     Tr[ns( 45)] =   3.00000
     eigenvalues:
       0.500  0.500  0.500
     eigenvectors (columns):
       1.000  0.000  0.000
       0.000  1.000  0.000
       0.000  0.000  1.000
     occupation matrix ns (before diag.):
       0.500  0.000  0.000
       0.000  0.500  0.000
       0.000  0.000  0.500
     ------------------------ ATOM   46 ------------------------
     Tr[ns( 46)] =   3.00000
     eigenvalues:
       0.500  0.500  0.500
     eigenvectors (columns):
       1.000  0.000  0.000
       0.000  1.000  0.000
       0.000  0.000  1.000
     occupation matrix ns (before diag.):
       0.500  0.000  0.000
       0.000  0.500  0.000
       0.000  0.000  0.500
     ------------------------ ATOM   47 ------------------------
     Tr[ns( 47)] =   3.00000
     eigenvalues:
       0.500  0.500  0.500
     eigenvectors (columns):
       1.000  0.000  0.000
       0.000  1.000  0.000
       0.000  0.000  1.000
     occupation matrix ns (before diag.):
       0.500  0.000  0.000
       0.000  0.500  0.000
       0.000  0.000  0.500
     ------------------------ ATOM   48 ------------------------
     Tr[ns( 48)] =   3.00000
     eigenvalues:
       0.500  0.500  0.500
     eigenvectors (columns):
       1.000  0.000  0.000
       0.000  1.000  0.000
       0.000  0.000  1.000
     occupation matrix ns (before diag.):
       0.500  0.000  0.000
       0.000  0.500  0.000
       0.000  0.000  0.500
     ------------------------ ATOM   49 ------------------------
     Tr[ns( 49)] =   1.00000
     eigenvalues:
       0.167  0.167  0.167
     eigenvectors (columns):
       1.000  0.000  0.000
       0.000  1.000  0.000
       0.000  0.000  1.000
     occupation matrix ns (before diag.):
       0.167  0.000  0.000
       0.000  0.167  0.000
       0.000  0.000  0.167
     ------------------------ ATOM   50 ------------------------
     Tr[ns( 50)] =   1.00000
     eigenvalues:
       0.167  0.167  0.167
     eigenvectors (columns):
       1.000  0.000  0.000
       0.000  1.000  0.000
       0.000  0.000  1.000
     occupation matrix ns (before diag.):
       0.167  0.000  0.000
       0.000  0.167  0.000
       0.000  0.000  0.167
     ------------------------ ATOM   51 ------------------------
     Tr[ns( 51)] =   1.00000
     eigenvalues:
       0.167  0.167  0.167
     eigenvectors (columns):
       1.000  0.000  0.000
       0.000  1.000  0.000
       0.000  0.000  1.000
     occupation matrix ns (before diag.):
       0.167  0.000  0.000
       0.000  0.167  0.000
       0.000  0.000  0.167
     ------------------------ ATOM   52 ------------------------
     Tr[ns( 52)] =   1.00000
     eigenvalues:
       0.167  0.167  0.167
     eigenvectors (columns):
       1.000  0.000  0.000
       0.000  1.000  0.000
       0.000  0.000  1.000
     occupation matrix ns (before diag.):
       0.167  0.000  0.000
       0.000  0.167  0.000
       0.000  0.000  0.167
     ------------------------ ATOM   53 ------------------------
     Tr[ns( 53)] =   3.00000
     eigenvalues:
       0.500  0.500  0.500
     eigenvectors (columns):
       1.000  0.000  0.000
       0.000  1.000  0.000
       0.000  0.000  1.000
     occupation matrix ns (before diag.):
       0.500  0.000  0.000
       0.000  0.500  0.000
       0.000  0.000  0.500
     ------------------------ ATOM   54 ------------------------
     Tr[ns( 54)] =   3.00000
     eigenvalues:
       0.500  0.500  0.500
     eigenvectors (columns):
       1.000  0.000  0.000
       0.000  1.000  0.000
       0.000  0.000  1.000
     occupation matrix ns (before diag.):
       0.500  0.000  0.000
       0.000  0.500  0.000
       0.000  0.000  0.500
     ------------------------ ATOM   55 ------------------------
     Tr[ns( 55)] =   3.00000
     eigenvalues:
       0.500  0.500  0.500
     eigenvectors (columns):
       1.000  0.000  0.000
       0.000  1.000  0.000
       0.000  0.000  1.000
     occupation matrix ns (before diag.):
       0.500  0.000  0.000
       0.000  0.500  0.000
       0.000  0.000  0.500
     ------------------------ ATOM   56 ------------------------
     Tr[ns( 56)] =   3.00000
     eigenvalues:
       0.500  0.500  0.500
     eigenvectors (columns):
       1.000  0.000  0.000
       0.000  1.000  0.000
       0.000  0.000  1.000
     occupation matrix ns (before diag.):
       0.500  0.000  0.000
       0.000  0.500  0.000
       0.000  0.000  0.500
     ------------------------ ATOM   57 ------------------------
     Tr[ns( 57)] =   1.00000
     eigenvalues:
       0.167  0.167  0.167
     eigenvectors (columns):
       1.000  0.000  0.000
       0.000  1.000  0.000
       0.000  0.000  1.000
     occupation matrix ns (before diag.):
       0.167  0.000  0.000
       0.000  0.167  0.000
       0.000  0.000  0.167
     ------------------------ ATOM   58 ------------------------
     Tr[ns( 58)] =   1.00000
     eigenvalues:
       0.167  0.167  0.167
     eigenvectors (columns):
       1.000  0.000  0.000
       0.000  1.000  0.000
       0.000  0.000  1.000
     occupation matrix ns (before diag.):
       0.167  0.000  0.000
       0.000  0.167  0.000
       0.000  0.000  0.167
     ------------------------ ATOM   59 ------------------------
     Tr[ns( 59)] =   1.00000
     eigenvalues:
       0.167  0.167  0.167
     eigenvectors (columns):
       1.000  0.000  0.000
       0.000  1.000  0.000
       0.000  0.000  1.000
     occupation matrix ns (before diag.):
       0.167  0.000  0.000
       0.000  0.167  0.000
       0.000  0.000  0.167
     ------------------------ ATOM   60 ------------------------
     Tr[ns( 60)] =   1.00000
     eigenvalues:
       0.167  0.167  0.167
     eigenvectors (columns):
       1.000  0.000  0.000
       0.000  1.000  0.000
       0.000  0.000  1.000
     occupation matrix ns (before diag.):
       0.167  0.000  0.000
       0.000  0.167  0.000
       0.000  0.000  0.167
     ------------------------ ATOM   61 ------------------------
     Tr[ns( 61)] =   3.00000
     eigenvalues:
       0.500  0.500  0.500
     eigenvectors (columns):
       1.000  0.000  0.000
       0.000  1.000  0.000
       0.000  0.000  1.000
     occupation matrix ns (before diag.):
       0.500  0.000  0.000
       0.000  0.500  0.000
       0.000  0.000  0.500
     ------------------------ ATOM   62 ------------------------
     Tr[ns( 62)] =   3.00000
     eigenvalues:
       0.500  0.500  0.500
     eigenvectors (columns):
       1.000  0.000  0.000
       0.000  1.000  0.000
       0.000  0.000  1.000
     occupation matrix ns (before diag.):
       0.500  0.000  0.000
       0.000  0.500  0.000
       0.000  0.000  0.500
     ------------------------ ATOM   63 ------------------------
     Tr[ns( 63)] =   3.00000
     eigenvalues:
       0.500  0.500  0.500
     eigenvectors (columns):
       1.000  0.000  0.000
       0.000  1.000  0.000
       0.000  0.000  1.000
     occupation matrix ns (before diag.):
       0.500  0.000  0.000
       0.000  0.500  0.000
       0.000  0.000  0.500
     ------------------------ ATOM   64 ------------------------
     Tr[ns( 64)] =   3.00000
     eigenvalues:
       0.500  0.500  0.500
     eigenvectors (columns):
       1.000  0.000  0.000
       0.000  1.000  0.000
       0.000  0.000  1.000
     occupation matrix ns (before diag.):
       0.500  0.000  0.000
       0.000  0.500  0.000
       0.000  0.000  0.500
     ------------------------ ATOM   65 ------------------------
     Tr[ns( 65)] =   1.00000
     eigenvalues:
       0.167  0.167  0.167
     eigenvectors (columns):
       1.000  0.000  0.000
       0.000  1.000  0.000
       0.000  0.000  1.000
     occupation matrix ns (before diag.):
       0.167  0.000  0.000
       0.000  0.167  0.000
       0.000  0.000  0.167
     ------------------------ ATOM   66 ------------------------
     Tr[ns( 66)] =   1.00000
     eigenvalues:
       0.167  0.167  0.167
     eigenvectors (columns):
       1.000  0.000  0.000
       0.000  1.000  0.000
       0.000  0.000  1.000
     occupation matrix ns (before diag.):
       0.167  0.000  0.000
       0.000  0.167  0.000
       0.000  0.000  0.167
     ------------------------ ATOM   67 ------------------------
     Tr[ns( 67)] =   1.00000
     eigenvalues:
       0.167  0.167  0.167
     eigenvectors (columns):
       1.000  0.000  0.000
       0.000  1.000  0.000
       0.000  0.000  1.000
     occupation matrix ns (before diag.):
       0.167  0.000  0.000
       0.000  0.167  0.000
       0.000  0.000  0.167
     ------------------------ ATOM   68 ------------------------
     Tr[ns( 68)] =   1.00000
     eigenvalues:
       0.167  0.167  0.167
     eigenvectors (columns):
       1.000  0.000  0.000
       0.000  1.000  0.000
       0.000  0.000  1.000
     occupation matrix ns (before diag.):
       0.167  0.000  0.000
       0.000  0.167  0.000
       0.000  0.000  0.167
     ------------------------ ATOM   69 ------------------------
     Tr[ns( 69)] =   3.00000
     eigenvalues:
       0.500  0.500  0.500
     eigenvectors (columns):
       1.000  0.000  0.000
       0.000  1.000  0.000
       0.000  0.000  1.000
     occupation matrix ns (before diag.):
       0.500  0.000  0.000
       0.000  0.500  0.000
       0.000  0.000  0.500
     ------------------------ ATOM   70 ------------------------
     Tr[ns( 70)] =   3.00000
     eigenvalues:
       0.500  0.500  0.500
     eigenvectors (columns):
       1.000  0.000  0.000
       0.000  1.000  0.000
       0.000  0.000  1.000
     occupation matrix ns (before diag.):
       0.500  0.000  0.000
       0.000  0.500  0.000
       0.000  0.000  0.500
     ------------------------ ATOM   71 ------------------------
     Tr[ns( 71)] =   3.00000
     eigenvalues:
       0.500  0.500  0.500
     eigenvectors (columns):
       1.000  0.000  0.000
       0.000  1.000  0.000
       0.000  0.000  1.000
     occupation matrix ns (before diag.):
       0.500  0.000  0.000
       0.000  0.500  0.000
       0.000  0.000  0.500
     ------------------------ ATOM   72 ------------------------
     Tr[ns( 72)] =   3.00000
     eigenvalues:
       0.500  0.500  0.500
     eigenvectors (columns):
       1.000  0.000  0.000
       0.000  1.000  0.000
       0.000  0.000  1.000
     occupation matrix ns (before diag.):
       0.500  0.000  0.000
       0.000  0.500  0.000
       0.000  0.000  0.500
     ------------------------ ATOM   73 ------------------------
     Tr[ns( 73)] =   1.00000
     eigenvalues:
       0.167  0.167  0.167
     eigenvectors (columns):
       1.000  0.000  0.000
       0.000  1.000  0.000
       0.000  0.000  1.000
     occupation matrix ns (before diag.):
       0.167  0.000  0.000
       0.000  0.167  0.000
       0.000  0.000  0.167
     ------------------------ ATOM   74 ------------------------
     Tr[ns( 74)] =   1.00000
     eigenvalues:
       0.167  0.167  0.167
     eigenvectors (columns):
       1.000  0.000  0.000
       0.000  1.000  0.000
       0.000  0.000  1.000
     occupation matrix ns (before diag.):
       0.167  0.000  0.000
       0.000  0.167  0.000
       0.000  0.000  0.167
     ------------------------ ATOM   75 ------------------------
     Tr[ns( 75)] =   1.00000
     eigenvalues:
       0.167  0.167  0.167
     eigenvectors (columns):
       1.000  0.000  0.000
       0.000  1.000  0.000
       0.000  0.000  1.000
     occupation matrix ns (before diag.):
       0.167  0.000  0.000
       0.000  0.167  0.000
       0.000  0.000  0.167
     ------------------------ ATOM   76 ------------------------
     Tr[ns( 76)] =   1.00000
     eigenvalues:
       0.167  0.167  0.167
     eigenvectors (columns):
       1.000  0.000  0.000
       0.000  1.000  0.000
       0.000  0.000  1.000
     occupation matrix ns (before diag.):
       0.167  0.000  0.000
       0.000  0.167  0.000
       0.000  0.000  0.167
     ------------------------ ATOM   77 ------------------------
     Tr[ns( 77)] =   3.00000
     eigenvalues:
       0.500  0.500  0.500
     eigenvectors (columns):
       1.000  0.000  0.000
       0.000  1.000  0.000
       0.000  0.000  1.000
     occupation matrix ns (before diag.):
       0.500  0.000  0.000
       0.000  0.500  0.000
       0.000  0.000  0.500
     ------------------------ ATOM   78 ------------------------
     Tr[ns( 78)] =   3.00000
     eigenvalues:
       0.500  0.500  0.500
     eigenvectors (columns):
       1.000  0.000  0.000
       0.000  1.000  0.000
       0.000  0.000  1.000
     occupation matrix ns (before diag.):
       0.500  0.000  0.000
       0.000  0.500  0.000
       0.000  0.000  0.500
     ------------------------ ATOM   79 ------------------------
     Tr[ns( 79)] =   3.00000
     eigenvalues:
       0.500  0.500  0.500
     eigenvectors (columns):
       1.000  0.000  0.000
       0.000  1.000  0.000
       0.000  0.000  1.000
     occupation matrix ns (before diag.):
       0.500  0.000  0.000
       0.000  0.500  0.000
       0.000  0.000  0.500
     ------------------------ ATOM   80 ------------------------
     Tr[ns( 80)] =   3.00000
     eigenvalues:
       0.500  0.500  0.500
     eigenvectors (columns):
       1.000  0.000  0.000
       0.000  1.000  0.000
       0.000  0.000  1.000
     occupation matrix ns (before diag.):
       0.500  0.000  0.000
       0.000  0.500  0.000
       0.000  0.000  0.500
     ------------------------ ATOM   81 ------------------------
     Tr[ns( 81)] =   1.00000
     eigenvalues:
       0.167  0.167  0.167
     eigenvectors (columns):
       1.000  0.000  0.000
       0.000  1.000  0.000
       0.000  0.000  1.000
     occupation matrix ns (before diag.):
       0.167  0.000  0.000
       0.000  0.167  0.000
       0.000  0.000  0.167
     ------------------------ ATOM   82 ------------------------
     Tr[ns( 82)] =   1.00000
     eigenvalues:
       0.167  0.167  0.167
     eigenvectors (columns):
       1.000  0.000  0.000
       0.000  1.000  0.000
       0.000  0.000  1.000
     occupation matrix ns (before diag.):
       0.167  0.000  0.000
       0.000  0.167  0.000
       0.000  0.000  0.167
     ------------------------ ATOM   83 ------------------------
     Tr[ns( 83)] =   1.00000
     eigenvalues:
       0.167  0.167  0.167
     eigenvectors (columns):
       1.000  0.000  0.000
       0.000  1.000  0.000
       0.000  0.000  1.000
     occupation matrix ns (before diag.):
       0.167  0.000  0.000
       0.000  0.167  0.000
       0.000  0.000  0.167
     ------------------------ ATOM   84 ------------------------
     Tr[ns( 84)] =   1.00000
     eigenvalues:
       0.167  0.167  0.167
     eigenvectors (columns):
       1.000  0.000  0.000
       0.000  1.000  0.000
       0.000  0.000  1.000
     occupation matrix ns (before diag.):
       0.167  0.000  0.000
       0.000  0.167  0.000
       0.000  0.000  0.167
     ------------------------ ATOM   85 ------------------------
     Tr[ns( 85)] =   3.00000
     eigenvalues:
       0.500  0.500  0.500
     eigenvectors (columns):
       1.000  0.000  0.000
       0.000  1.000  0.000
       0.000  0.000  1.000
     occupation matrix ns (before diag.):
       0.500  0.000  0.000
       0.000  0.500  0.000
       0.000  0.000  0.500
     ------------------------ ATOM   86 ------------------------
     Tr[ns( 86)] =   3.00000
     eigenvalues:
       0.500  0.500  0.500
     eigenvectors (columns):
       1.000  0.000  0.000
       0.000  1.000  0.000
       0.000  0.000  1.000
     occupation matrix ns (before diag.):
       0.500  0.000  0.000
       0.000  0.500  0.000
       0.000  0.000  0.500
     ------------------------ ATOM   87 ------------------------
     Tr[ns( 87)] =   3.00000
     eigenvalues:
       0.500  0.500  0.500
     eigenvectors (columns):
       1.000  0.000  0.000
       0.000  1.000  0.000
       0.000  0.000  1.000
     occupation matrix ns (before diag.):
       0.500  0.000  0.000
       0.000  0.500  0.000
       0.000  0.000  0.500
     ------------------------ ATOM   88 ------------------------
     Tr[ns( 88)] =   3.00000
     eigenvalues:
       0.500  0.500  0.500
     eigenvectors (columns):
       1.000  0.000  0.000
       0.000  1.000  0.000
       0.000  0.000  1.000
     occupation matrix ns (before diag.):
       0.500  0.000  0.000
       0.000  0.500  0.000
       0.000  0.000  0.500
     ------------------------ ATOM   89 ------------------------
     Tr[ns( 89)] =   1.00000
     eigenvalues:
       0.167  0.167  0.167
     eigenvectors (columns):
       1.000  0.000  0.000
       0.000  1.000  0.000
       0.000  0.000  1.000
     occupation matrix ns (before diag.):
       0.167  0.000  0.000
       0.000  0.167  0.000
       0.000  0.000  0.167
     ------------------------ ATOM   90 ------------------------
     Tr[ns( 90)] =   1.00000
     eigenvalues:
       0.167  0.167  0.167
     eigenvectors (columns):
       1.000  0.000  0.000
       0.000  1.000  0.000
       0.000  0.000  1.000
     occupation matrix ns (before diag.):
       0.167  0.000  0.000
       0.000  0.167  0.000
       0.000  0.000  0.167
     ------------------------ ATOM   91 ------------------------
     Tr[ns( 91)] =   1.00000
     eigenvalues:
       0.167  0.167  0.167
     eigenvectors (columns):
       1.000  0.000  0.000
       0.000  1.000  0.000
       0.000  0.000  1.000
     occupation matrix ns (before diag.):
       0.167  0.000  0.000
       0.000  0.167  0.000
       0.000  0.000  0.167
     ------------------------ ATOM   92 ------------------------
     Tr[ns( 92)] =   1.00000
     eigenvalues:
       0.167  0.167  0.167
     eigenvectors (columns):
       1.000  0.000  0.000
       0.000  1.000  0.000
       0.000  0.000  1.000
     occupation matrix ns (before diag.):
       0.167  0.000  0.000
       0.000  0.167  0.000
       0.000  0.000  0.167
     ------------------------ ATOM   93 ------------------------
     Tr[ns( 93)] =   3.00000
     eigenvalues:
       0.500  0.500  0.500
     eigenvectors (columns):
       1.000  0.000  0.000
       0.000  1.000  0.000
       0.000  0.000  1.000
     occupation matrix ns (before diag.):
       0.500  0.000  0.000
       0.000  0.500  0.000
       0.000  0.000  0.500
     ------------------------ ATOM   94 ------------------------
     Tr[ns( 94)] =   3.00000
     eigenvalues:
       0.500  0.500  0.500
     eigenvectors (columns):
       1.000  0.000  0.000
       0.000  1.000  0.000
       0.000  0.000  1.000
     occupation matrix ns (before diag.):
       0.500  0.000  0.000
       0.000  0.500  0.000
       0.000  0.000  0.500
     ------------------------ ATOM   95 ------------------------
     Tr[ns( 95)] =   3.00000
     eigenvalues:
       0.500  0.500  0.500
     eigenvectors (columns):
       1.000  0.000  0.000
       0.000  1.000  0.000
       0.000  0.000  1.000
     occupation matrix ns (before diag.):
       0.500  0.000  0.000
       0.000  0.500  0.000
       0.000  0.000  0.500
     ------------------------ ATOM   96 ------------------------
     Tr[ns( 96)] =   3.00000
     eigenvalues:
       0.500  0.500  0.500
     eigenvectors (columns):
       1.000  0.000  0.000
       0.000  1.000  0.000
       0.000  0.000  1.000
     occupation matrix ns (before diag.):
       0.500  0.000  0.000
       0.000  0.500  0.000
       0.000  0.000  0.500
     ------------------------ ATOM   97 ------------------------
     Tr[ns( 97)] =   1.00000
     eigenvalues:
       0.167  0.167  0.167
     eigenvectors (columns):
       1.000  0.000  0.000
       0.000  1.000  0.000
       0.000  0.000  1.000
     occupation matrix ns (before diag.):
       0.167  0.000  0.000
       0.000  0.167  0.000
       0.000  0.000  0.167
     ------------------------ ATOM   98 ------------------------
     Tr[ns( 98)] =   1.00000
     eigenvalues:
       0.167  0.167  0.167
     eigenvectors (columns):
       1.000  0.000  0.000
       0.000  1.000  0.000
       0.000  0.000  1.000
     occupation matrix ns (before diag.):
       0.167  0.000  0.000
       0.000  0.167  0.000
       0.000  0.000  0.167
     ------------------------ ATOM   99 ------------------------
     Tr[ns( 99)] =   1.00000
     eigenvalues:
       0.167  0.167  0.167
     eigenvectors (columns):
       1.000  0.000  0.000
       0.000  1.000  0.000
       0.000  0.000  1.000
     occupation matrix ns (before diag.):
       0.167  0.000  0.000
       0.000  0.167  0.000
       0.000  0.000  0.167
     ------------------------ ATOM  100 ------------------------
     Tr[ns(100)] =   1.00000
     eigenvalues:
       0.167  0.167  0.167
     eigenvectors (columns):
       1.000  0.000  0.000
       0.000  1.000  0.000
       0.000  0.000  1.000
     occupation matrix ns (before diag.):
       0.167  0.000  0.000
       0.000  0.167  0.000
       0.000  0.000  0.167
     ------------------------ ATOM  101 ------------------------
     Tr[ns(101)] =   3.00000
     eigenvalues:
       0.500  0.500  0.500
     eigenvectors (columns):
       1.000  0.000  0.000
       0.000  1.000  0.000
       0.000  0.000  1.000
     occupation matrix ns (before diag.):
       0.500  0.000  0.000
       0.000  0.500  0.000
       0.000  0.000  0.500
     ------------------------ ATOM  102 ------------------------
     Tr[ns(102)] =   3.00000
     eigenvalues:
       0.500  0.500  0.500
     eigenvectors (columns):
       1.000  0.000  0.000
       0.000  1.000  0.000
       0.000  0.000  1.000
     occupation matrix ns (before diag.):
       0.500  0.000  0.000
       0.000  0.500  0.000
       0.000  0.000  0.500
     ------------------------ ATOM  103 ------------------------
     Tr[ns(103)] =   3.00000
     eigenvalues:
       0.500  0.500  0.500
     eigenvectors (columns):
       1.000  0.000  0.000
       0.000  1.000  0.000
       0.000  0.000  1.000
     occupation matrix ns (before diag.):
       0.500  0.000  0.000
       0.000  0.500  0.000
       0.000  0.000  0.500
     ------------------------ ATOM  104 ------------------------
     Tr[ns(104)] =   3.00000
     eigenvalues:
       0.500  0.500  0.500
     eigenvectors (columns):
       1.000  0.000  0.000
       0.000  1.000  0.000
       0.000  0.000  1.000
     occupation matrix ns (before diag.):
       0.500  0.000  0.000
       0.000  0.500  0.000
       0.000  0.000  0.500
     ------------------------ ATOM  105 ------------------------
     Tr[ns(105)] =   1.00000
     eigenvalues:
       0.167  0.167  0.167
     eigenvectors (columns):
       1.000  0.000  0.000
       0.000  1.000  0.000
       0.000  0.000  1.000
     occupation matrix ns (before diag.):
       0.167  0.000  0.000
       0.000  0.167  0.000
       0.000  0.000  0.167
     ------------------------ ATOM  106 ------------------------
     Tr[ns(106)] =   1.00000
     eigenvalues:
       0.167  0.167  0.167
     eigenvectors (columns):
       1.000  0.000  0.000
       0.000  1.000  0.000
       0.000  0.000  1.000
     occupation matrix ns (before diag.):
       0.167  0.000  0.000
       0.000  0.167  0.000
       0.000  0.000  0.167
     ------------------------ ATOM  107 ------------------------
     Tr[ns(107)] =   1.00000
     eigenvalues:
       0.167  0.167  0.167
     eigenvectors (columns):
       1.000  0.000  0.000
       0.000  1.000  0.000
       0.000  0.000  1.000
     occupation matrix ns (before diag.):
       0.167  0.000  0.000
       0.000  0.167  0.000
       0.000  0.000  0.167
     ------------------------ ATOM  108 ------------------------
     Tr[ns(108)] =   1.00000
     eigenvalues:
       0.167  0.167  0.167
     eigenvectors (columns):
       1.000  0.000  0.000
       0.000  1.000  0.000
       0.000  0.000  1.000
     occupation matrix ns (before diag.):
       0.167  0.000  0.000
       0.000  0.167  0.000
       0.000  0.000  0.167
     ------------------------ ATOM  109 ------------------------
     Tr[ns(109)] =   3.00000
     eigenvalues:
       0.500  0.500  0.500
     eigenvectors (columns):
       1.000  0.000  0.000
       0.000  1.000  0.000
       0.000  0.000  1.000
     occupation matrix ns (before diag.):
       0.500  0.000  0.000
       0.000  0.500  0.000
       0.000  0.000  0.500
     ------------------------ ATOM  110 ------------------------
     Tr[ns(110)] =   3.00000
     eigenvalues:
       0.500  0.500  0.500
     eigenvectors (columns):
       1.000  0.000  0.000
       0.000  1.000  0.000
       0.000  0.000  1.000
     occupation matrix ns (before diag.):
       0.500  0.000  0.000
       0.000  0.500  0.000
       0.000  0.000  0.500
     ------------------------ ATOM  111 ------------------------
     Tr[ns(111)] =   3.00000
     eigenvalues:
       0.500  0.500  0.500
     eigenvectors (columns):
       1.000  0.000  0.000
       0.000  1.000  0.000
       0.000  0.000  1.000
     occupation matrix ns (before diag.):
       0.500  0.000  0.000
       0.000  0.500  0.000
       0.000  0.000  0.500
     ------------------------ ATOM  112 ------------------------
     Tr[ns(112)] =   3.00000
     eigenvalues:
       0.500  0.500  0.500
     eigenvectors (columns):
       1.000  0.000  0.000
       0.000  1.000  0.000
       0.000  0.000  1.000
     occupation matrix ns (before diag.):
       0.500  0.000  0.000
       0.000  0.500  0.000
       0.000  0.000  0.500
     ------------------------ ATOM  113 ------------------------
     Tr[ns(113)] =   1.00000
     eigenvalues:
       0.167  0.167  0.167
     eigenvectors (columns):
       1.000  0.000  0.000
       0.000  1.000  0.000
       0.000  0.000  1.000
     occupation matrix ns (before diag.):
       0.167  0.000  0.000
       0.000  0.167  0.000
       0.000  0.000  0.167
     ------------------------ ATOM  114 ------------------------
     Tr[ns(114)] =   1.00000
     eigenvalues:
       0.167  0.167  0.167
     eigenvectors (columns):
       1.000  0.000  0.000
       0.000  1.000  0.000
       0.000  0.000  1.000
     occupation matrix ns (before diag.):
       0.167  0.000  0.000
       0.000  0.167  0.000
       0.000  0.000  0.167
     ------------------------ ATOM  115 ------------------------
     Tr[ns(115)] =   1.00000
     eigenvalues:
       0.167  0.167  0.167
     eigenvectors (columns):
       1.000  0.000  0.000
       0.000  1.000  0.000
       0.000  0.000  1.000
     occupation matrix ns (before diag.):
       0.167  0.000  0.000
       0.000  0.167  0.000
       0.000  0.000  0.167
     ------------------------ ATOM  116 ------------------------
     Tr[ns(116)] =   1.00000
     eigenvalues:
       0.167  0.167  0.167
     eigenvectors (columns):
       1.000  0.000  0.000
       0.000  1.000  0.000
       0.000  0.000  1.000
     occupation matrix ns (before diag.):
       0.167  0.000  0.000
       0.000  0.167  0.000
       0.000  0.000  0.167
     ------------------------ ATOM  117 ------------------------
     Tr[ns(117)] =   3.00000
     eigenvalues:
       0.500  0.500  0.500
     eigenvectors (columns):
       1.000  0.000  0.000
       0.000  1.000  0.000
       0.000  0.000  1.000
     occupation matrix ns (before diag.):
       0.500  0.000  0.000
       0.000  0.500  0.000
       0.000  0.000  0.500
     ------------------------ ATOM  118 ------------------------
     Tr[ns(118)] =   3.00000
     eigenvalues:
       0.500  0.500  0.500
     eigenvectors (columns):
       1.000  0.000  0.000
       0.000  1.000  0.000
       0.000  0.000  1.000
     occupation matrix ns (before diag.):
       0.500  0.000  0.000
       0.000  0.500  0.000
       0.000  0.000  0.500
     ------------------------ ATOM  119 ------------------------
     Tr[ns(119)] =   3.00000
     eigenvalues:
       0.500  0.500  0.500
     eigenvectors (columns):
       1.000  0.000  0.000
       0.000  1.000  0.000
       0.000  0.000  1.000
     occupation matrix ns (before diag.):
       0.500  0.000  0.000
       0.000  0.500  0.000
       0.000  0.000  0.500
     ------------------------ ATOM  120 ------------------------
     Tr[ns(120)] =   3.00000
     eigenvalues:
       0.500  0.500  0.500
     eigenvectors (columns):
       1.000  0.000  0.000
       0.000  1.000  0.000
       0.000  0.000  1.000
     occupation matrix ns (before diag.):
       0.500  0.000  0.000
       0.000  0.500  0.000
       0.000  0.000  0.500
     ------------------------ ATOM  121 ------------------------
     Tr[ns(121)] =   1.00000
     eigenvalues:
       0.167  0.167  0.167
     eigenvectors (columns):
       1.000  0.000  0.000
       0.000  1.000  0.000
       0.000  0.000  1.000
     occupation matrix ns (before diag.):
       0.167  0.000  0.000
       0.000  0.167  0.000
       0.000  0.000  0.167
     ------------------------ ATOM  122 ------------------------
     Tr[ns(122)] =   1.00000
     eigenvalues:
       0.167  0.167  0.167
     eigenvectors (columns):
       1.000  0.000  0.000
       0.000  1.000  0.000
       0.000  0.000  1.000
     occupation matrix ns (before diag.):
       0.167  0.000  0.000
       0.000  0.167  0.000
       0.000  0.000  0.167
     ------------------------ ATOM  123 ------------------------
     Tr[ns(123)] =   1.00000
     eigenvalues:
       0.167  0.167  0.167
     eigenvectors (columns):
       1.000  0.000  0.000
       0.000  1.000  0.000
       0.000  0.000  1.000
     occupation matrix ns (before diag.):
       0.167  0.000  0.000
       0.000  0.167  0.000
       0.000  0.000  0.167
     ------------------------ ATOM  124 ------------------------
     Tr[ns(124)] =   1.00000
     eigenvalues:
       0.167  0.167  0.167
     eigenvectors (columns):
       1.000  0.000  0.000
       0.000  1.000  0.000
       0.000  0.000  1.000
     occupation matrix ns (before diag.):
       0.167  0.000  0.000
       0.000  0.167  0.000
       0.000  0.000  0.167
     ------------------------ ATOM  125 ------------------------
     Tr[ns(125)] =   3.00000
     eigenvalues:
       0.500  0.500  0.500
     eigenvectors (columns):
       1.000  0.000  0.000
       0.000  1.000  0.000
       0.000  0.000  1.000
     occupation matrix ns (before diag.):
       0.500  0.000  0.000
       0.000  0.500  0.000
       0.000  0.000  0.500
     ------------------------ ATOM  126 ------------------------
     Tr[ns(126)] =   3.00000
     eigenvalues:
       0.500  0.500  0.500
     eigenvectors (columns):
       1.000  0.000  0.000
       0.000  1.000  0.000
       0.000  0.000  1.000
     occupation matrix ns (before diag.):
       0.500  0.000  0.000
       0.000  0.500  0.000
       0.000  0.000  0.500
     ------------------------ ATOM  127 ------------------------
     Tr[ns(127)] =   3.00000
     eigenvalues:
       0.500  0.500  0.500
     eigenvectors (columns):
       1.000  0.000  0.000
       0.000  1.000  0.000
       0.000  0.000  1.000
     occupation matrix ns (before diag.):
       0.500  0.000  0.000
       0.000  0.500  0.000
       0.000  0.000  0.500
     ------------------------ ATOM  128 ------------------------
     Tr[ns(128)] =   3.00000
     eigenvalues:
       0.500  0.500  0.500
     eigenvectors (columns):
       1.000  0.000  0.000
       0.000  1.000  0.000
       0.000  0.000  1.000
     occupation matrix ns (before diag.):
       0.500  0.000  0.000
       0.000  0.500  0.000
       0.000  0.000  0.500
     ------------------------ ATOM  129 ------------------------
     Tr[ns(129)] =   1.00000
     eigenvalues:
       0.167  0.167  0.167
     eigenvectors (columns):
       1.000  0.000  0.000
       0.000  1.000  0.000
       0.000  0.000  1.000
     occupation matrix ns (before diag.):
       0.167  0.000  0.000
       0.000  0.167  0.000
       0.000  0.000  0.167
     ------------------------ ATOM  130 ------------------------
     Tr[ns(130)] =   1.00000
     eigenvalues:
       0.167  0.167  0.167
     eigenvectors (columns):
       1.000  0.000  0.000
       0.000  1.000  0.000
       0.000  0.000  1.000
     occupation matrix ns (before diag.):
       0.167  0.000  0.000
       0.000  0.167  0.000
       0.000  0.000  0.167
     ------------------------ ATOM  131 ------------------------
     Tr[ns(131)] =   1.00000
     eigenvalues:
       0.167  0.167  0.167
     eigenvectors (columns):
       1.000  0.000  0.000
       0.000  1.000  0.000
       0.000  0.000  1.000
     occupation matrix ns (before diag.):
       0.167  0.000  0.000
       0.000  0.167  0.000
       0.000  0.000  0.167
     ------------------------ ATOM  132 ------------------------
     Tr[ns(132)] =   1.00000
     eigenvalues:
       0.167  0.167  0.167
     eigenvectors (columns):
       1.000  0.000  0.000
       0.000  1.000  0.000
       0.000  0.000  1.000
     occupation matrix ns (before diag.):
       0.167  0.000  0.000
       0.000  0.167  0.000
       0.000  0.000  0.167
     ------------------------ ATOM  133 ------------------------
     Tr[ns(133)] =   3.00000
     eigenvalues:
       0.500  0.500  0.500
     eigenvectors (columns):
       1.000  0.000  0.000
       0.000  1.000  0.000
       0.000  0.000  1.000
     occupation matrix ns (before diag.):
       0.500  0.000  0.000
       0.000  0.500  0.000
       0.000  0.000  0.500
     ------------------------ ATOM  134 ------------------------
     Tr[ns(134)] =   3.00000
     eigenvalues:
       0.500  0.500  0.500
     eigenvectors (columns):
       1.000  0.000  0.000
       0.000  1.000  0.000
       0.000  0.000  1.000
     occupation matrix ns (before diag.):
       0.500  0.000  0.000
       0.000  0.500  0.000
       0.000  0.000  0.500
     ------------------------ ATOM  135 ------------------------
     Tr[ns(135)] =   3.00000
     eigenvalues:
       0.500  0.500  0.500
     eigenvectors (columns):
       1.000  0.000  0.000
       0.000  1.000  0.000
       0.000  0.000  1.000
     occupation matrix ns (before diag.):
       0.500  0.000  0.000
       0.000  0.500  0.000
       0.000  0.000  0.500
     ------------------------ ATOM  136 ------------------------
     Tr[ns(136)] =   3.00000
     eigenvalues:
       0.500  0.500  0.500
     eigenvectors (columns):
       1.000  0.000  0.000
       0.000  1.000  0.000
       0.000  0.000  1.000
     occupation matrix ns (before diag.):
       0.500  0.000  0.000
       0.000  0.500  0.000
       0.000  0.000  0.500
     ------------------------ ATOM  137 ------------------------
     Tr[ns(137)] =   1.00000
     eigenvalues:
       0.167  0.167  0.167
     eigenvectors (columns):
       1.000  0.000  0.000
       0.000  1.000  0.000
       0.000  0.000  1.000
     occupation matrix ns (before diag.):
       0.167  0.000  0.000
       0.000  0.167  0.000
       0.000  0.000  0.167
     ------------------------ ATOM  138 ------------------------
     Tr[ns(138)] =   1.00000
     eigenvalues:
       0.167  0.167  0.167
     eigenvectors (columns):
       1.000  0.000  0.000
       0.000  1.000  0.000
       0.000  0.000  1.000
     occupation matrix ns (before diag.):
       0.167  0.000  0.000
       0.000  0.167  0.000
       0.000  0.000  0.167
     ------------------------ ATOM  139 ------------------------
     Tr[ns(139)] =   1.00000
     eigenvalues:
       0.167  0.167  0.167
     eigenvectors (columns):
       1.000  0.000  0.000
       0.000  1.000  0.000
       0.000  0.000  1.000
     occupation matrix ns (before diag.):
       0.167  0.000  0.000
       0.000  0.167  0.000
       0.000  0.000  0.167
     ------------------------ ATOM  140 ------------------------
     Tr[ns(140)] =   1.00000
     eigenvalues:
       0.167  0.167  0.167
     eigenvectors (columns):
       1.000  0.000  0.000
       0.000  1.000  0.000
       0.000  0.000  1.000
     occupation matrix ns (before diag.):
       0.167  0.000  0.000
       0.000  0.167  0.000
       0.000  0.000  0.167
     ------------------------ ATOM  141 ------------------------
     Tr[ns(141)] =   3.00000
     eigenvalues:
       0.500  0.500  0.500
     eigenvectors (columns):
       1.000  0.000  0.000
       0.000  1.000  0.000
       0.000  0.000  1.000
     occupation matrix ns (before diag.):
       0.500  0.000  0.000
       0.000  0.500  0.000
       0.000  0.000  0.500
     ------------------------ ATOM  142 ------------------------
     Tr[ns(142)] =   3.00000
     eigenvalues:
       0.500  0.500  0.500
     eigenvectors (columns):
       1.000  0.000  0.000
       0.000  1.000  0.000
       0.000  0.000  1.000
     occupation matrix ns (before diag.):
       0.500  0.000  0.000
       0.000  0.500  0.000
       0.000  0.000  0.500
     ------------------------ ATOM  143 ------------------------
     Tr[ns(143)] =   3.00000
     eigenvalues:
       0.500  0.500  0.500
     eigenvectors (columns):
       1.000  0.000  0.000
       0.000  1.000  0.000
       0.000  0.000  1.000
     occupation matrix ns (before diag.):
       0.500  0.000  0.000
       0.000  0.500  0.000
       0.000  0.000  0.500
     ------------------------ ATOM  144 ------------------------
     Tr[ns(144)] =   3.00000
     eigenvalues:
       0.500  0.500  0.500
     eigenvectors (columns):
       1.000  0.000  0.000
       0.000  1.000  0.000
       0.000  0.000  1.000
     occupation matrix ns (before diag.):
       0.500  0.000  0.000
       0.000  0.500  0.000
       0.000  0.000  0.500
     ------------------------ ATOM  145 ------------------------
     Tr[ns(145)] =   1.00000
     eigenvalues:
       0.167  0.167  0.167
     eigenvectors (columns):
       1.000  0.000  0.000
       0.000  1.000  0.000
       0.000  0.000  1.000
     occupation matrix ns (before diag.):
       0.167  0.000  0.000
       0.000  0.167  0.000
       0.000  0.000  0.167
     ------------------------ ATOM  146 ------------------------
     Tr[ns(146)] =   1.00000
     eigenvalues:
       0.167  0.167  0.167
     eigenvectors (columns):
       1.000  0.000  0.000
       0.000  1.000  0.000
       0.000  0.000  1.000
     occupation matrix ns (before diag.):
       0.167  0.000  0.000
       0.000  0.167  0.000
       0.000  0.000  0.167
     ------------------------ ATOM  147 ------------------------
     Tr[ns(147)] =   1.00000
     eigenvalues:
       0.167  0.167  0.167
     eigenvectors (columns):
       1.000  0.000  0.000
       0.000  1.000  0.000
       0.000  0.000  1.000
     occupation matrix ns (before diag.):
       0.167  0.000  0.000
       0.000  0.167  0.000
       0.000  0.000  0.167
     ------------------------ ATOM  148 ------------------------
     Tr[ns(148)] =   1.00000
     eigenvalues:
       0.167  0.167  0.167
     eigenvectors (columns):
       1.000  0.000  0.000
       0.000  1.000  0.000
       0.000  0.000  1.000
     occupation matrix ns (before diag.):
       0.167  0.000  0.000
       0.000  0.167  0.000
       0.000  0.000  0.167
     ------------------------ ATOM  149 ------------------------
     Tr[ns(149)] =   3.00000
     eigenvalues:
       0.500  0.500  0.500
     eigenvectors (columns):
       1.000  0.000  0.000
       0.000  1.000  0.000
       0.000  0.000  1.000
     occupation matrix ns (before diag.):
       0.500  0.000  0.000
       0.000  0.500  0.000
       0.000  0.000  0.500
     ------------------------ ATOM  150 ------------------------
     Tr[ns(150)] =   3.00000
     eigenvalues:
       0.500  0.500  0.500
     eigenvectors (columns):
       1.000  0.000  0.000
       0.000  1.000  0.000
       0.000  0.000  1.000
     occupation matrix ns (before diag.):
       0.500  0.000  0.000
       0.000  0.500  0.000
       0.000  0.000  0.500
     ------------------------ ATOM  151 ------------------------
     Tr[ns(151)] =   3.00000
     eigenvalues:
       0.500  0.500  0.500
     eigenvectors (columns):
       1.000  0.000  0.000
       0.000  1.000  0.000
       0.000  0.000  1.000
     occupation matrix ns (before diag.):
       0.500  0.000  0.000
       0.000  0.500  0.000
       0.000  0.000  0.500
     ------------------------ ATOM  152 ------------------------
[...]
   -26.8683 -26.8681 -26.8678 -26.8678 -26.8675 -26.8671 -26.8669 -26.8667
   -26.8664 -26.8663 -26.8657 -26.8654 -26.8653 -26.8652 -26.8649 -26.8648
   -26.8642 -26.8641 -26.8638 -26.8636 -26.8636 -26.8635 -26.8635 -26.8635
   -26.8633 -26.8633 -26.8631 -26.8626 -26.8625 -26.8621 -26.8618 -26.8618
   -26.8618 -26.8617 -26.8616 -26.8615 -26.8612 -26.8611 -26.8610 -26.8606
   -26.8604 -26.8604 -26.8599 -26.8595 -26.8593 -26.8590 -26.8589 -26.8584
   -26.8583 -26.8577 -26.8563 -26.8561 -26.8555 -26.8554 -26.8543 -26.8541
   -26.8541 -26.8539 -26.8534 -26.8530 -26.8515 -26.8514 -26.8495 -26.8489
   -26.8488 -26.8479 -26.8466 -26.8434 -26.8420 -20.2252 -20.2241 -20.2228
   -20.2205 -20.2185 -20.2166 -20.2142 -20.2119 -20.2099 -20.2096 -20.2077
   -20.2076 -20.2063 -20.2055 -20.2055 -20.2051 -20.2051 -20.2050 -20.2048
   -20.2041 -20.2038 -20.2029 -20.2027 -20.2023 -20.2018 -20.2013 -20.2004
   -20.2003 -20.2002 -20.1992 -20.1989 -20.1982 -20.1981 -20.1979 -20.1977
   -20.1974 -20.1972 -20.1967 -20.1963 -20.1958 -20.1956 -20.1953 -20.1947
   -20.1947 -20.1944 -20.1939 -20.1935 -20.1932 -20.1929 -20.1925 -20.1923
   -20.1916 -20.1911 -20.1911 -20.1909 -20.1908 -20.1906 -20.1888 -20.1885
   -20.1885 -20.1873 -20.1867 -20.1865 -20.1865 -20.1863 -20.1861 -20.1859
   -20.1856 -20.1855 -20.1854 -20.1847 -20.1846 -20.1845 -20.1845 -20.1835
   -20.1829 -20.1829 -20.1829 -20.1826 -20.1825 -20.1822 -20.1806 -20.1797
   -20.1796 -20.1796 -20.1791 -20.1789 -20.1786 -20.1780 -20.1776 -20.1770
   -20.1770 -20.1768 -20.1762 -20.1761 -20.1759 -20.1753 -20.1748 -20.1748
   -20.1742 -20.1738 -20.1733 -20.1730 -20.1728 -20.1720 -20.1713 -20.1711
   -20.1706 -20.1705 -20.1704 -20.1694 -20.1690 -20.1689 -20.1677 -20.1672
   -20.1668 -20.1668 -20.1656 -20.1646 -20.1644 -20.1640 -20.1636 -20.1625
   -20.1613 -20.1604 -20.1599 -20.1575 -20.1555 -20.1553 -20.1553 -20.1547
   -20.1488 -20.1480 -20.1453 -20.1448  -7.1751  -7.1698  -7.1659  -7.1644
    -7.1637  -7.1610  -7.1605  -7.1589  -7.1583  -7.1569  -7.1560  -7.1555
    -7.1532  -7.1522  -7.1520  -7.1517  -7.1497  -7.1484  -7.1482  -7.1475
    -7.1463  -7.1449  -7.1441  -7.1439  -7.1436  -7.1424  -7.1412  -7.1408
    -7.1396  -7.1393  -7.1387  -7.1377  -7.1373  -7.1370  -7.1363  -7.1361
    -7.1347  -7.1343  -7.1334  -7.1326  -7.1324  -7.1319  -7.1311  -7.1306
    -7.1301  -7.1292  -7.1277  -7.1269  -7.1262  -7.1259  -7.1253  -7.1250
    -7.1242  -7.1235  -7.1225  -7.1220  -7.1209  -7.1208  -7.1197  -7.1181
    -7.1179  -7.1174  -7.1164  -7.1153  -7.1137  -7.1127  -7.1116  -7.1104
    -7.1096  -7.1089  -7.1071  -7.1060  -7.1046  -7.1034  -7.1017  -7.0994
    -7.0987  -7.0962  -7.0932  -7.0929  -7.0912  -7.0887  -7.0876  -7.0868
    -7.0860  -7.0846  -7.0828  -7.0825  -7.0810  -7.0788  -7.0780  -7.0765
    -7.0758  -7.0754  -7.0740  -7.0737  -7.0727  -7.0721  -7.0711  -7.0700
    -7.0695  -7.0690  -7.0683  -7.0675  -7.0669  -7.0660  -7.0655  -7.0650
    -7.0647  -7.0644  -7.0638  -7.0631  -7.0623  -7.0615  -7.0612  -7.0605
    -7.0601  -7.0600  -7.0592  -7.0590  -7.0580  -7.0571  -7.0571  -7.0565
    -7.0563  -7.0558  -7.0554  -7.0546  -7.0542  -7.0540  -7.0530  -7.0523
    -7.0522  -7.0513  -7.0509  -7.0504  -7.0495  -7.0493  -7.0490  -7.0485
    -7.0479  -7.0475  -7.0471  -7.0463  -7.0461  -7.0460  -7.0454  -7.0452
    -7.0448  -7.0446  -7.0439  -7.0438  -7.0428  -7.0424  -7.0421  -7.0417
    -7.0416  -7.0415  -7.0410  -7.0408  -7.0400  -7.0397  -7.0394  -7.0387
    -7.0385  -7.0383  -7.0375  -7.0372  -7.0371  -7.0361  -7.0358  -7.0354
    -7.0350  -7.0348  -7.0346  -7.0340  -7.0337  -7.0329  -7.0326  -7.0319
    -7.0317  -7.0310  -7.0305  -7.0299  -7.0294  -7.0293  -7.0290  -7.0282
    -7.0279  -7.0275  -7.0269  -7.0265  -7.0262  -7.0258  -7.0253  -7.0253
    -7.0247  -7.0244  -7.0240  -7.0235  -7.0231  -7.0229  -7.0225  -7.0221
    -7.0221  -7.0215  -7.0212  -7.0206  -7.0202  -7.0198  -7.0194  -7.0188
    -7.0185  -7.0180  -7.0178  -7.0177  -7.0172  -7.0170  -7.0167  -7.0164
    -7.0159  -7.0157  -7.0155  -7.0150  -7.0143  -7.0139  -7.0132  -7.0127
    -7.0125  -7.0122  -7.0120  -7.0116  -7.0108  -7.0107  -7.0104  -7.0101
    -7.0097  -7.0094  -7.0091  -7.0088  -7.0082  -7.0078  -7.0076  -7.0070
    -7.0067  -7.0061  -7.0059  -7.0056  -7.0051  -7.0047  -7.0045  -7.0043
    -7.0038  -7.0034  -7.0031  -7.0027  -7.0021  -7.0018  -7.0016  -7.0011
    -7.0007  -7.0002  -6.9996  -6.9992  -6.9990  -6.9985  -6.9982  -6.9977
    -6.9972  -6.9969  -6.9966  -6.9960  -6.9956  -6.9953  -6.9953  -6.9950
    -6.9942  -6.9939  -6.9935  -6.9931  -6.9928  -6.9921  -6.9919  -6.9917
    -6.9910  -6.9905  -6.9902  -6.9895  -6.9890  -6.9889  -6.9886  -6.9881
    -6.9879  -6.9876  -6.9868  -6.9865  -6.9860  -6.9854  -6.9852  -6.9844
    -6.9838  -6.9829  -6.9827  -6.9821  -6.9818  -6.9814  -6.9808  -6.9804
    -6.9799  -6.9791  -6.9789  -6.9786  -6.9779  -6.9779  -6.9773  -6.9768
    -6.9760  -6.9758  -6.9756  -6.9752  -6.9749  -6.9745  -6.9742  -6.9740
    -6.9734  -6.9731  -6.9727  -6.9721  -6.9720  -6.9717  -6.9716  -6.9711
    -6.9705  -6.9703  -6.9702  -6.9694  -6.9689  -6.9686  -6.9680  -6.9677
    -6.9676  -6.9670  -6.9669  -6.9668  -6.9663  -6.9659  -6.9658  -6.9655
    -6.9650  -6.9647  -6.9646  -6.9642  -6.9635  -6.9632  -6.9628  -6.9626
    -6.9623  -6.9619  -6.9615  -6.9611  -6.9606  -6.9604  -6.9600  -6.9597
    -6.9596  -6.9594  -6.9592  -6.9588  -6.9584  -6.9579  -6.9577  -6.9571
    -6.9571  -6.9568  -6.9566  -6.9563  -6.9559  -6.9559  -6.9551  -6.9549
    -6.9542  -6.9541  -6.9539  -6.9535  -6.9527  -6.9524  -6.9523  -6.9516
    -6.9512  -6.9509  -6.9505  -6.9497  -6.9495  -6.9492  -6.9486  -6.9483
    -6.9482  -6.9476  -6.9471  -6.9467  -6.9463  -6.9457  -6.9455  -6.9451
    -6.9447  -6.9444  -6.9439  -6.9437  -6.9434  -6.9424  -6.9420  -6.9414
    -6.9413  -6.9406  -6.9403  -6.9399  -6.9397  -6.9393  -6.9389  -6.9385
    -6.9382  -6.9378  -6.9375  -6.9369  -6.9365  -6.9359  -6.9357  -6.9352
    -6.9348  -6.9346  -6.9345  -6.9342  -6.9338  -6.9333  -6.9331  -6.9325
    -6.9324  -6.9317  -6.9313  -6.9311  -6.9308  -6.9303  -6.9300  -6.9296
    -6.9293  -6.9290  -6.9286  -6.9281  -6.9279  -6.9272  -6.9269  -6.9252
    -6.9250  -6.9247  -6.9244  -6.9241  -6.9236  -6.9232  -6.9228  -6.9224
    -6.9216  -6.9214  -6.9208  -6.9204  -6.9201  -6.9197  -6.9196  -6.9192
    -6.9187  -6.9185  -6.9176  -6.9174  -6.9169  -6.9164  -6.9162  -6.9156
    -6.9144  -6.9142  -6.9135  -6.9133  -6.9130  -6.9125  -6.9123  -6.9116
    -6.9111  -6.9106  -6.9099  -6.9094  -6.9090  -6.9085  -6.9078  -6.9072
    -6.9063  -6.9062  -6.9054  -6.9052  -6.9045  -6.9037  -6.9033  -6.9031
    -6.9024  -6.9019  -6.9011  -6.9009  -6.9006  -6.9003  -6.8996  -6.8989
    -6.8982  -6.8977  -6.8967  -6.8965  -6.8942  -6.8931  -6.8929  -6.8916
    -6.8912  -6.8909  -6.8909  -6.8897  -6.8894  -6.8885  -6.8875  -6.8862
    -6.8847  -6.8845  -6.8837  -6.8833  -6.8824  -6.8806  -6.8787  -6.8774
    -6.8768  -6.8762  -6.8750  -6.8745  -6.8697  -6.8688  -6.8666  -6.8651
    -3.6123  -3.5455  -3.5274  -3.5217  -3.3749  -3.3388  -3.3032  -3.3025
    -3.2498  -3.2313  -3.2004  -3.1742  -3.0635  -3.0537  -3.0400  -3.0170
    -3.0065  -2.9522  -2.9214  -2.9093  -2.8321  -2.8247  -2.8143  -2.8067
    -2.7932  -2.7746  -2.7700  -2.7417  -2.7240  -2.7093  -2.6973  -2.6800
    -2.6576  -2.6192  -2.6026  -2.5685  -2.5420  -2.5352  -2.5146  -2.5036
    -2.4723  -2.4648  -2.4340  -2.4219  -2.3947  -2.3910  -2.3668  -2.3386
    -2.3189  -2.3147  -2.2916  -2.2787  -2.2687  -2.2439  -2.2153  -2.2026
    -2.1966  -2.1832  -2.1756  -2.1635  -2.1464  -2.1424  -2.1349  -2.1257
    -2.0934  -2.0808  -2.0640  -2.0530  -2.0380  -2.0315  -2.0264  -2.0248
    -2.0198  -2.0157  -2.0052  -1.9913  -1.9819  -1.9711  -1.9519  -1.9265
    -1.8566  -1.6867  -1.5769  -1.5037  -1.4385  -1.4142  -1.3751  -1.3516
    -1.3404  -1.3119  -1.2797  -1.2337  -1.2092  -1.1813  -1.1407  -1.1201
    -1.0922  -1.0850  -1.0501  -0.9989  -0.9735  -0.9632  -0.9314  -0.8729
    -0.8287  -0.8220  -0.7990  -0.7582   0.6335   0.6732   0.6790   0.6884
     0.8268   0.8309   0.8384   0.8447   0.8540   0.8613   0.8687   0.8722
     0.9231   0.9284   0.9333   0.9413   0.9485   0.9529   0.9625   0.9630
     0.9714   0.9724   0.9729   0.9808   0.9864   0.9936   0.9984   1.0012
     1.0030   1.0087   1.0123   1.0170   1.0227   1.0232   1.0250   1.0301
     1.0403   1.0417   1.0473   1.0514   1.0575   1.0614   1.0693   1.0758
     1.0799   1.0956   1.1035   1.1057   1.1085   1.1177   1.1213   1.1266
     1.1400   1.1558   1.1614   1.1753   1.1835   1.1892   1.1961   1.2385
     1.6851   1.7146   1.7278   1.7601   1.7653   1.7992   1.8093   1.8134
     1.8261   1.8538   1.8691   1.9024   1.9226   1.9462   1.9715   1.9805
     1.9895   2.0244   2.0299   2.0477   2.0622   2.0766   2.0953   2.1307
     2.1356   2.1454   2.1728   2.2058   2.9458   2.9507   2.9731   3.0036
     3.0272   3.0303   3.0787   3.1342   3.4937   3.5111   3.5117   3.5245
     3.5289   3.5442   3.5510   3.5692   3.5792   3.5814   3.5896   3.6053
     3.6266   3.6675   3.6807   3.6907   3.7514   3.7578   3.7647   3.7709
     3.7737   3.7779   3.7860   3.7866   3.7909   3.8041   3.8066   3.8178
     3.8333   3.8445   3.8502   3.8720   3.8912   3.9064   3.9232   3.9339
     3.9987   4.0083   4.0193   4.0221   4.0327   4.0408   4.0474   4.0559
     4.0608   4.0687   4.0734   4.0875   4.0901   4.1055   4.1125   4.1259
     4.1270   4.1331   4.1503   4.1831   4.4161   4.4278   4.4493   4.4613
     4.4636   4.4911   4.5020   4.5080   4.5460   4.5720   4.5844   4.5922
     4.5937   4.6099   4.6166   4.6203   4.6218   4.6336   4.6418   4.6466
     4.6511   4.6604   4.6720   4.6777   4.6812   4.6905   4.7001   4.7153
     4.7217   4.7331   4.7385   4.7606   4.7707   4.7828   4.8181   4.8397
     4.8673   4.8921   4.8958   4.9095   4.9161   4.9262   4.9292   4.9431
     4.9495   4.9599   4.9655   4.9712   4.9843   4.9899   5.0036   5.0202
     5.0351   5.0443   5.0521   5.0615   5.0707   5.0776   5.0809   5.0913
     5.0976   5.1170   5.1227   5.1319   5.1378   5.1523   5.1642   5.1688
     5.1760   5.1931   5.1991   5.2106   5.2299   5.2433   5.2512   5.2629
     5.2725   5.2834   5.2901   5.2950   5.3022   5.3084   5.3239   5.3378
     5.3531   5.3632   5.3829   5.3892   5.4187   5.4452   5.4528   5.4628
     5.4805   5.4855   5.5012   5.5054   5.5100   5.5278   5.5298   5.5320
     5.5436   5.5498   5.5645   5.5704   5.5863   5.6017   5.6137   5.6257
     5.6376   5.6537   5.6629   5.6722   5.7566   5.7797   5.7954   5.8109
     5.8251   5.8543   5.8636   5.8815   5.8901   5.8976   5.9289   5.9423
     5.9672   5.9698   5.9858   6.0003   6.0022   6.0243   6.0250   6.0425
     6.0463   6.0664   6.0830   6.0866   6.0927   6.1038   6.1164   6.1328
     6.1555   6.1687   6.1714   6.1954   6.2106   6.2206   6.2232   6.2498
     6.2637   6.2960   6.3027   6.3213   6.3362   6.3552   6.3683   6.3856
     6.3971   6.4201   6.4271   6.4654   6.4740   6.4991   6.5159   6.5299
     6.5495   6.6232   6.6688   6.6968   6.9834   7.0162   7.0653   7.1104
     8.6929   8.7246   8.7391   8.7688   8.8743   8.8935   8.9023   8.9233
     8.9575   8.9791   8.9946   9.0012   9.1380   9.1800   9.2078   9.2217
     9.2430   9.2649   9.2828   9.3225   9.4454   9.4793   9.4894   9.5163
     9.5306   9.5383   9.5571   9.5582   9.5615   9.5718   9.6068   9.6180
     9.6344   9.6420   9.6450   9.6521   9.6646   9.6721   9.6784   9.6941
     9.7005   9.7059   9.7126   9.7223   9.7317   9.7348   9.7488   9.7639
     9.7711   9.7883   9.7986   9.8048   9.8218   9.8362   9.8406   9.8498
     9.9067   9.9259   9.9298   9.9438   9.9554   9.9621   9.9676   9.9723
     9.9877   9.9914   9.9960  10.0022  10.0048  10.0119  10.0124  10.0176
    10.0218  10.0278  10.0334  10.0408  10.0458  10.0492  10.0630  10.0656
    10.0725  10.0778  10.0858  10.0895  10.0961  10.1102  10.1122  10.1172
    10.1314  10.1418  10.1547  10.1556  10.1682  10.1722  10.1752  10.1879
    10.1923  10.2042  10.2089  10.2225  10.2356  10.2487  10.2493  10.2622
    10.2797  10.2890  10.2995  10.3433  10.5385  10.5548  10.5639  10.5720
    10.5858  10.6047  10.6314  10.6423  10.6514  10.6646  10.7004  10.7109
    10.8062  10.8465  10.8578  10.8855  10.9012  10.9216  10.9405  10.9596
    10.9825  10.9920  10.9995  11.0216  11.0334  11.0540  11.0817  11.1209
    11.2593  11.2732  11.2950  11.3073  11.3188  11.3250  11.3539  11.3671
    11.3944  11.4000  11.4113  11.4182  11.5266  11.5362  11.5492  11.5557
    11.5627  11.5853  11.5909  11.5983  11.6063  11.6099  11.6197  11.6316
    11.6393  11.6438  11.6469  11.6478  11.6618  11.6674  11.6703  11.6810
    11.6879  11.6976  11.7029  11.7061  11.7230  11.7289  11.7345  11.7401
    11.7474  11.7532  11.7581  11.7673  11.7765  11.7822  11.7866  11.8077
    11.8137  11.8170  11.8261  11.8458  11.8516  11.8563  11.8573  11.8644
    11.8880  11.8899  11.9027  11.9038  11.9241  11.9410  11.9450  11.9689
    11.9891  12.0024  12.0061  12.0183  12.0258  12.0288  12.0404  12.0774
    12.0803  12.0815  12.0939  12.1280  12.1521  12.1700  12.1834  12.1940
    12.2218  12.2314  12.2524  12.2609  12.2746  12.2871  12.2884  12.3064
    12.3134  12.3223  12.3312  12.3339  12.3906  12.3991  12.4148  12.4293
    12.4520  12.4624  12.4777  12.4811  12.4874  12.4918  12.4957  12.5017
    12.5076  12.5250  12.5343  12.5350  12.5456  12.5578  12.5700  12.5787
    12.5941  12.6019  12.6367  12.6401  12.6631  12.6777  12.6905  12.6943
    12.7034  12.7221  12.7261  12.7309  12.7397  12.7434  12.7605  12.7637
    12.7690  12.7830  12.7921  12.8047  12.8093  12.8140  12.8408  12.8488
    12.8848  12.8913  12.8987  12.9106  12.9169  12.9211  12.9389  12.9447
    12.9541  12.9756  12.9834  12.9900  13.0082  13.0142  13.0317  13.0510
    13.0914  13.1002  13.1097  13.1124  13.1192  13.1323  13.1469  13.1516
    13.1584  13.1642  13.1730  13.1771  13.1814  13.1910  13.1925  13.2112
    13.2121  13.2217  13.2305  13.2334  13.2460  13.2499  13.2550  13.2631
    13.2695  13.2722  13.2758  13.2843  13.2956  13.3042  13.3106  13.3165
    13.3206  13.3324  13.3416  13.3456  13.3529  13.3577  13.3659  13.3728
    13.3809  13.3864  13.3931  13.3962  13.4105  13.4214  13.4259  13.4372
    13.4432  13.4623  13.4647  13.4791  13.4990  13.5194  13.5438  13.5508
    13.5786  13.5931  13.6057  13.6290  13.6503  13.6817  13.7028  13.7131
    14.0922  14.0977  14.1282  14.1331  14.1427  14.1556  14.1613  14.1664
    14.1767  14.1829  14.1979  14.2028  14.2121  14.2152  14.2343  14.2379
    14.2565  14.2701  14.2783  14.2914  14.2965  14.3056  14.3189  14.3496
    14.3538  14.3604  14.3684  14.3810  14.3845  14.3951  14.3969  14.4465
    14.4882  14.5047  14.5252  14.5510  14.5591  14.5769  14.5940  14.6060
    14.6098  14.6173  14.6412  14.6463  14.6557  14.6690  14.6925  14.6963
    14.7659  14.7861  14.7958  14.8076  14.8130  14.8171  14.8425  14.8500
    14.8638  14.8737  14.8780  14.8932  14.8962  14.9122  14.9302  14.9387
    14.9611  14.9997  15.0065  15.0198  15.0586  15.0685  15.0872  15.0954
    15.1293  15.1428  15.1580  15.1660  15.1845  15.1955  15.2104  15.2212
    15.3037  15.3098  15.3277  15.3380  15.4720  15.4988  15.5042  15.5088
    15.5211  15.5230  15.5351  15.5466  15.5594  15.5641  15.5864  15.6050
    15.6256  15.6330  15.6384  15.6417  15.6455  15.6609  15.6635  15.6682
    15.6754  15.6827  15.6898  15.6925  15.7074  15.7137  15.7254  15.7286
    15.7356  15.7432  15.7467  15.7514  15.7552  15.7736  15.7760  15.7784
    15.7891  15.7947  15.8013  15.8071  15.8095  15.8153  15.8251  15.8308
    15.8416  15.8476  15.8526  15.8659  15.8700  15.8745  15.8813  15.8859
    15.8962  15.9057  15.9133  15.9271  15.9281  15.9406  15.9615  15.9684
    15.9822  15.9950  16.0239  16.0326  16.0469  16.0531  16.0560  16.0776
    16.0830  16.0952  16.1020  16.1053  16.1396  16.1449  16.1516  16.1596
    16.1799  16.1813  16.1946  16.2126  16.2189  16.2316  16.2375  16.2420
    16.2580  16.2630  16.2701  16.2762  16.2806  16.2952  16.3027  16.3135
    16.3214  16.3244  16.3298  16.3463  16.3516  16.3764  16.3925  16.3961
    16.4064  16.4228  16.4306  16.4449  16.4509  16.4859  16.5128  16.5227
    16.5370  16.5610  16.5825  16.5886  16.5973  16.5992  16.6077  16.6089
    16.6152  16.6368  16.6458  16.6517  16.6651  16.6679  16.6753  16.6956
    16.6983  16.7198  16.7260  16.7389  16.7413  16.7471  16.7502  16.7791
    16.7895  16.7922  16.8053  16.8108  16.8145  16.8287  16.8324  16.8340
    16.8408  16.8629  16.8656  16.8936  17.0521  17.0592  17.0635  17.0689
    17.0909  17.1112  17.1202  17.1306  17.1412  17.1451  17.1618  17.1642
    17.1710  17.1748  17.1881  17.1904  17.1916  17.1989  17.2061  17.2151
    17.2155  17.2208  17.2286  17.2419  17.2432  17.2464  17.2597  17.2635
    17.5061  17.5201  17.5268  17.5349  17.5757  17.5907  17.5965  17.6069
    17.7193  17.7331  17.7444  17.7669  17.7722  17.7839  17.7907  17.8005
    17.8274  17.8342  17.8408  17.8476  17.8584  17.8705  17.8776  17.8884
    17.8970  17.9061  17.9154  17.9196  17.9297  17.9351  17.9419  17.9579
    17.9603  17.9713  17.9768  17.9847  17.9915  18.0029  18.0245  18.0281

     highest occupied, lowest unoccupied level (ev):     7.1561    7.4085

!    total energy              =  -36448.26428527 Ry
     estimated scf accuracy    <       0.00000296 Ry

     The total energy is the sum of the following terms:
     one-electron contribution =  -18575.65150415 Ry
     hartree contribution      =   11038.70813098 Ry
     xc contribution           =   -9410.74008627 Ry
     ewald contribution        =  -19502.77415020 Ry
     Hubbard energy            =       2.19332437 Ry

     convergence has been achieved in  12 iterations

     Writing all to output data dir ./tmp_In1.0Ga0.0As0.75Sb0.25_cube_3x3x3.5/In1.0Ga0.0As0.75Sb0.25_cube_3x3x3.5.save/ :
     XML data file, charge density, pseudopotentials, collected wavefunctions

     init_run     :    263.89s CPU    266.55s WALL (       1 calls)
     electrons    :  10141.66s CPU  10165.25s WALL (       1 calls)

     Called by init_run:
     wfcinit      :    253.61s CPU    255.95s WALL (       1 calls)
     potinit      :      2.10s CPU      2.15s WALL (       1 calls)
     hinit0       :      0.67s CPU      0.70s WALL (       1 calls)

     Called by electrons:
     c_bands      :   9733.37s CPU   9755.31s WALL (      13 calls)
     sum_band     :    401.64s CPU    402.32s WALL (      13 calls)
     v_of_rho     :      4.63s CPU      4.86s WALL (      13 calls)
     mix_rho      :      0.97s CPU      0.99s WALL (      13 calls)

     Called by c_bands:
     init_us_2    :     37.06s CPU     37.65s WALL (      28 calls)
     cegterg      :   9331.32s CPU   9351.88s WALL (      13 calls)

     Called by *egterg:
     cdiaghg      :    874.80s CPU    875.65s WALL (     116 calls)
     h_psi        :   5738.50s CPU   5750.11s WALL (     118 calls)
     g_psi        :      4.64s CPU      4.64s WALL (     104 calls)

     Called by h_psi:
     h_psi:calbec :    888.24s CPU    888.31s WALL (     118 calls)
     vloc_psi     :   1124.71s CPU   1126.59s WALL (     118 calls)
     add_vuspsi   :    871.52s CPU    874.19s WALL (     118 calls)
     vhpsi        :   2844.31s CPU   2844.50s WALL (     118 calls)

     General routines
     calbec       :   1123.75s CPU   1123.85s WALL (     250 calls)
     fft          :      2.75s CPU      2.98s WALL (     131 calls)
     ffts         :      0.22s CPU      0.23s WALL (      13 calls)
     fftw         :   1185.86s CPU   1187.89s WALL (  162832 calls)

     Parallel routines

     Hubbard U routines
     new_ns       :     61.94s CPU     61.95s WALL (      13 calls)
     vhpsi        :   2844.31s CPU   2844.50s WALL (     118 calls)

     PWSCF        :      2h53m CPU      2h55m WALL


   This run was terminated on:  22:45:55   7Apr2026            

=------------------------------------------------------------------------------=
   JOB DONE.
=------------------------------------------------------------------------------=
