
     Program PWSCF v.7.3.1 starts on 15May2025 at 17:43:22 

     This program is part of the open-source Quantum ESPRESSO suite
     for quantum simulation of materials; please cite
         "P. Giannozzi et al., J. Phys.:Condens. Matter 21 395502 (2009);
         "P. Giannozzi et al., J. Phys.:Condens. Matter 29 465901 (2017);
         "P. Giannozzi et al., J. Chem. Phys. 152 154105 (2020);
          URL http://www.quantum-espresso.org", 
     in publications or presentations arising from this work. More details at
     http://www.quantum-espresso.org/quote

     Parallel version (MPI), running on   512 processors

     MPI processes distributed on     4 nodes
     430704 MiB available memory on the printing compute node when the environment starts

     Reading input from In0.0Ga1.0As0.5Sb0.5_cube_3x3x3.1.scf.in
Warning: card &CELL ignored
Warning: card   CELL_DOFREE = 'ALL', ignored
Warning: card / ignored

     Current dimensions of program PWSCF are:
     Max number of different atomic species (ntypx) = 10
     Max number of k-points (npk) =  40000
     Max angular momentum in pseudopotentials (lmaxx) =  4

     K-points division:     npool     =       8
     R & G space division:  proc/nbgrp/npool/nimage =      64
     Subspace diagonalization in iterative solution of the eigenvalue problem:
     one sub-group per band group will be used
     custom distributed-memory algorithm (size of sub-group:  8*  8 procs)


     Parallelization info
     --------------------
     sticks:   dense  smooth     PW     G-vecs:    dense   smooth      PW
     Min         667     667    172               103787   103787   13562
     Max         668     668    173               103792   103792   13568
     Sum       42697   42697  11009              6642417  6642417  868215

     Using Slab Decomposition



     bravais-lattice index     =            1
     lattice parameter (alat)  =      33.4440  a.u.
     unit-cell volume          =   37407.1471 (a.u.)^3
     number of atoms/cell      =          216
     number of atomic types    =            4
     number of electrons       =      3024.00
     number of Kohn-Sham states=         2160
     kinetic-energy cutoff     =     120.0000  Ry
     charge density cutoff     =     480.0000  Ry
     scf convergence threshold =      1.0E-05
     mixing beta               =       0.6500
     number of iterations used =            8  plain     mixing
     Exchange-correlation= PBE
                           (   1   4   3   4   0   0   0)
     Hubbard projectors: atomic
     Hubbard parameters of DFT+U (Dudarev formulation) in eV:
     U(As-4p) =  5.8400
     U(Ga-4p) = -2.8000
     U(In-5p) = -1.0150
     U(Sb-5p) =  4.8900

     Internal variables: lda_plus_u =T, lda_plus_u_kind = 0

     celldm(1)=  33.443999  celldm(2)=   0.000000  celldm(3)=   0.000000
     celldm(4)=   0.000000  celldm(5)=   0.000000  celldm(6)=   0.000000

     crystal axes: (cart. coord. in units of alat)
               a(1) = (   1.000000   0.000000   0.000000 )  
               a(2) = (   0.000000   1.000000   0.000000 )  
               a(3) = (   0.000000   0.000000   1.000000 )  

     reciprocal axes: (cart. coord. in units 2 pi/alat)
               b(1) = (  1.000000  0.000000  0.000000 )  
               b(2) = (  0.000000  1.000000  0.000000 )  
               b(3) = (  0.000000  0.000000  1.000000 )  


     PseudoPot. # 1 for As read from file:
     /work/i254/i254/gentles/data/pseudos/As.pbe.NC-SR.standard.v0.5.UPF
     MD5 check sum: bfe1a874457ce592347346129958e7cf
     Pseudo is Norm-conserving + core correction, Zval = 15.0
     Generated using ONCVPSP code by D. R. Hamann
     Using radial grid of 1358 points,  6 beta functions with: 
                l(1) =   0
                l(2) =   0
                l(3) =   1
                l(4) =   1
                l(5) =   2
                l(6) =   2

     PseudoPot. # 2 for Ga read from file:
     /work/i254/i254/gentles/data/pseudos/Ga.pbe.NC-SR.standard.v0.5.UPF
     MD5 check sum: 2bb81bf6f0a8d9832cf3329850435ecf
     Pseudo is Norm-conserving + core correction, Zval = 13.0
     Generated using ONCVPSP code by D. R. Hamann
     Using radial grid of 1902 points,  6 beta functions with: 
                l(1) =   0
                l(2) =   0
                l(3) =   1
                l(4) =   1
                l(5) =   2
                l(6) =   2

     PseudoPot. # 3 for In read from file:
     /work/i254/i254/gentles/data/pseudos/In.pbe.NC-SR.standard.v0.5.UPF
     MD5 check sum: 835f4bf908c982ff75c88e16816a8d7f
     Pseudo is Norm-conserving + core correction, Zval = 13.0
     Generated using ONCVPSP code by D. R. Hamann
     Using radial grid of 1964 points,  6 beta functions with: 
                l(1) =   0
                l(2) =   0
                l(3) =   1
                l(4) =   1
                l(5) =   2
                l(6) =   2

     PseudoPot. # 4 for Sb read from file:
     /work/i254/i254/gentles/data/pseudos/Sb.pbe.NC-SR.standard.v0.5.UPF
     MD5 check sum: 127f69b6101c45666faeae1b5d611565
     Pseudo is Norm-conserving + core correction, Zval = 15.0
     Generated using ONCVPSP code by D. R. Hamann
     Using radial grid of 1434 points,  6 beta functions with: 
                l(1) =   0
                l(2) =   0
                l(3) =   1
                l(4) =   1
                l(5) =   2
                l(6) =   2

     atomic species   valence    mass     pseudopotential
     As               15.00    74.92160     As( 1.00)
     Ga               13.00    69.72300     Ga( 1.00)
     In               13.00   114.81800     In( 1.00)
     Sb               15.00   121.76000     Sb( 1.00)

     No symmetry found



   Cartesian axes

     site n.     atom                  positions (alat units)
         1        Ga     tau(   1) = (  -0.0012430  -0.0015310   0.0128730  )
         2        Ga     tau(   2) = (   0.0019840   0.1608440   0.1682630  )
         3        Ga     tau(   3) = (   0.1616040  -0.0000860   0.1692440  )
         4        Ga     tau(   4) = (   0.1627800   0.1597950  -0.0014100  )
         5        As     tau(   5) = (   0.0832400   0.0815930   0.0866260  )
         6        As     tau(   6) = (   0.0787570   0.2458100   0.2500330  )
         7        As     tau(   7) = (   0.2422240   0.0810920   0.2498730  )
         8        Sb     tau(   8) = (   0.2477070   0.2488070   0.0838090  )
         9        Ga     tau(   9) = (  -0.0003190   0.0009280   0.3270500  )
        10        Ga     tau(  10) = (   0.0019660   0.1604970   0.4927000  )
        11        Ga     tau(  11) = (   0.1604420   0.0051860   0.4941650  )
        12        Ga     tau(  12) = (   0.1609570   0.1629300   0.3296130  )
        13        As     tau(  13) = (   0.0804840   0.0814860   0.4090980  )
        14        Sb     tau(  14) = (   0.0831440   0.2455100   0.5838830  )
        15        Sb     tau(  15) = (   0.2508110   0.0824370   0.5846650  )
        16        Sb     tau(  16) = (   0.2513260   0.2468200   0.4151790  )
        17        Ga     tau(  17) = (  -0.0003060   0.0013100   0.6770400  )
        18        Ga     tau(  18) = (   0.0053520   0.1649370   0.8356700  )
        19        Ga     tau(  19) = (   0.1659130   0.0058910   0.8339320  )
        20        Ga     tau(  20) = (   0.1679160   0.1652170   0.6760330  )
        21        As     tau(  21) = (   0.0838640   0.0841890   0.7540220  )
        22        As     tau(  22) = (   0.0865930   0.2443130   0.9164870  )
        23        As     tau(  23) = (   0.2463210   0.0827960   0.9158990  )
        24        As     tau(  24) = (   0.2510080   0.2491180   0.7512350  )
        25        Ga     tau(  25) = (   0.0045040   0.3273180  -0.0053760  )
        26        Ga     tau(  26) = (  -0.0056740   0.5033980   0.1724650  )
        27        Ga     tau(  27) = (   0.1590060   0.3283280   0.1717120  )
        28        Ga     tau(  28) = (   0.1682080   0.5085660   0.0010410  )
        29        Sb     tau(  29) = (   0.0808950   0.4189040   0.0843000  )
        30        As     tau(  30) = (   0.0810950   0.5867400   0.2472970  )
        31        Sb     tau(  31) = (   0.2475830   0.4211000   0.2479330  )
        32        As     tau(  32) = (   0.2505700   0.5870760   0.0806580  )
        33        Ga     tau(  33) = (  -0.0017030   0.3344510   0.3246400  )
        34        Ga     tau(  34) = (  -0.0032620   0.5027020   0.4964590  )
        35        Ga     tau(  35) = (   0.1665320   0.3329700   0.4990130  )
        36        Ga     tau(  36) = (   0.1666110   0.5142000   0.3309460  )
        37        Sb     tau(  37) = (   0.0839380   0.4197480   0.4111670  )
        38        Sb     tau(  38) = (   0.0845940   0.5880460   0.5796410  )
        39        Sb     tau(  39) = (   0.2528260   0.4164860   0.5847830  )
        40        As     tau(  40) = (   0.2500210   0.5892900   0.4152930  )
        41        Ga     tau(  41) = (  -0.0042700   0.3322950   0.6662880  )
        42        Ga     tau(  42) = (   0.0067830   0.5068450   0.8404580  )
        43        Ga     tau(  43) = (   0.1695430   0.3242120   0.8352020  )
        44        Ga     tau(  44) = (   0.1667930   0.5010540   0.6692560  )
        45        Sb     tau(  45) = (   0.0834890   0.4142270   0.7539610  )
        46        As     tau(  46) = (   0.0841770   0.5880910   0.9241370  )
        47        Sb     tau(  47) = (   0.2524260   0.4191200   0.9161960  )
        48        Sb     tau(  48) = (   0.2527450   0.5855090   0.7544290  )
        49        Ga     tau(  49) = (   0.0027750   0.6656130   0.0084680  )
        50        Ga     tau(  50) = (  -0.0024160   0.8327820   0.1668750  )
        51        Ga     tau(  51) = (   0.1631980   0.6628150   0.1628570  )
        52        Ga     tau(  52) = (   0.1644340   0.8224240   0.0022700  )
        53        As     tau(  53) = (   0.0815440   0.7482680   0.0871840  )
        54        As     tau(  54) = (   0.0782200   0.9171320   0.2469360  )
        55        Sb     tau(  55) = (   0.2474730   0.7491020   0.2495940  )
        56        Sb     tau(  56) = (   0.2481440   0.9145190   0.0823070  )
        57        Ga     tau(  57) = (   0.0033010   0.6722850   0.3268920  )
        58        Ga     tau(  58) = (  -0.0003670   0.8249520   0.4974680  )
        59        Ga     tau(  59) = (   0.1710470   0.6734720   0.4926050  )
        60        Ga     tau(  60) = (   0.1561290   0.8355830   0.3301560  )
        61        As     tau(  61) = (   0.0829410   0.7498480   0.4130910  )
        62        Sb     tau(  62) = (   0.0809280   0.9164780   0.5835530  )
        63        As     tau(  63) = (   0.2530460   0.7508130   0.5769970  )
        64        Sb     tau(  64) = (   0.2483060   0.9147710   0.4162530  )
        65        Ga     tau(  65) = (  -0.0071520   0.6718500   0.6604210  )
        66        Ga     tau(  66) = (  -0.0054120   0.8404390   0.8283410  )
        67        Ga     tau(  67) = (   0.1664930   0.6681760   0.8442670  )
        68        Ga     tau(  68) = (   0.1733890   0.8292350   0.6602340  )
        69        Sb     tau(  69) = (   0.0832460   0.7507520   0.7491220  )
        70        Sb     tau(  70) = (   0.0824090   0.9168960   0.9198420  )
        71        As     tau(  71) = (   0.2511630   0.7472680   0.9224550  )
        72        Sb     tau(  72) = (   0.2526710   0.9153050   0.7511820  )
        73        Ga     tau(  73) = (   0.3299580  -0.0020530  -0.0094770  )
        74        Ga     tau(  74) = (   0.3258390   0.1598870   0.1716250  )
        75        Ga     tau(  75) = (   0.5016690  -0.0005360   0.1649100  )
        76        Ga     tau(  76) = (   0.5014230   0.1667340   0.0001140  )
        77        Sb     tau(  77) = (   0.4122390   0.0809220   0.0811750  )
        78        Sb     tau(  78) = (   0.4183330   0.2489180   0.2483330  )
        79        Sb     tau(  79) = (   0.5890430   0.0820690   0.2520480  )
        80        Sb     tau(  80) = (   0.5871430   0.2515820   0.0845710  )
        81        Ga     tau(  81) = (   0.3271410   0.0036140   0.3285070  )
        82        Ga     tau(  82) = (   0.3411390   0.1715300   0.5077990  )
        83        Ga     tau(  83) = (   0.5026420  -0.0115370   0.4968160  )
        84        Ga     tau(  84) = (   0.5088270   0.1723630   0.3391760  )
        85        Sb     tau(  85) = (   0.4191130   0.0826920   0.4170250  )
        86        As     tau(  86) = (   0.4217610   0.2527930   0.5886260  )
        87        Sb     tau(  87) = (   0.5839950   0.0815220   0.5821060  )
        88        As     tau(  88) = (   0.5858680   0.2549310   0.4204760  )
        89        Ga     tau(  89) = (   0.3416220  -0.0080080   0.6601110  )
        90        Ga     tau(  90) = (   0.3231220   0.1656800   0.8348420  )
        91        Ga     tau(  91) = (   0.4952430  -0.0065930   0.8373100  )
        92        Ga     tau(  92) = (   0.5030340   0.1724910   0.6689120  )
        93        Sb     tau(  93) = (   0.4154050   0.0837490   0.7509500  )
        94        Sb     tau(  94) = (   0.4158960   0.2510080   0.9140070  )
        95        Sb     tau(  95) = (   0.5870870   0.0810420   0.9156010  )
        96        As     tau(  96) = (   0.5872890   0.2522730   0.7464560  )
        97        Ga     tau(  97) = (   0.3385700   0.3393810   0.0052920  )
        98        Ga     tau(  98) = (   0.3320150   0.5035260   0.1579610  )
        99        Ga     tau(  99) = (   0.4972680   0.3414990   0.1624780  )
       100        Ga     tau( 100) = (   0.4978850   0.5066940   0.0048160  )
       101        As     tau( 101) = (   0.4174990   0.4231970   0.0827400  )
       102        Sb     tau( 102) = (   0.4174650   0.5872600   0.2487220  )
       103        Sb     tau( 103) = (   0.5873750   0.4194110   0.2508140  )
       104        As     tau( 104) = (   0.5806300   0.5881720   0.0850460  )
       105        Ga     tau( 105) = (   0.3348540   0.3362670   0.3321590  )
       106        Ga     tau( 106) = (   0.3292090   0.5067940   0.4957260  )
       107        Ga     tau( 107) = (   0.5047430   0.3329170   0.5072990  )
       108        Ga     tau( 108) = (   0.5063860   0.5070260   0.3372560  )
       109        Sb     tau( 109) = (   0.4201910   0.4191170   0.4195750  )
       110        Sb     tau( 110) = (   0.4202150   0.5855250   0.5819320  )
       111        As     tau( 111) = (   0.5858190   0.4166930   0.5839300  )
       112        As     tau( 112) = (   0.5878840   0.5862770   0.4162810  )
       113        Ga     tau( 113) = (   0.3389160   0.3308520   0.6716950  )
       114        Ga     tau( 114) = (   0.3467720   0.4999710   0.8330520  )
       115        Ga     tau( 115) = (   0.5024210   0.3324900   0.8245640  )
       116        Ga     tau( 116) = (   0.5039790   0.4958920   0.6677410  )
       117        As     tau( 117) = (   0.4215460   0.4155080   0.7480850  )
       118        As     tau( 118) = (   0.4197070   0.5845900   0.9192400  )
       119        Sb     tau( 119) = (   0.5814930   0.4197700   0.9148240  )
       120        As     tau( 120) = (   0.5812180   0.5820620   0.7488920  )
       121        Ga     tau( 121) = (   0.3347580   0.6657370  -0.0000070  )
       122        Ga     tau( 122) = (   0.3390220   0.8273730   0.1613270  )
       123        Ga     tau( 123) = (   0.5044200   0.6735560   0.1645200  )
       124        Ga     tau( 124) = (   0.4956350   0.8284730  -0.0038370  )
       125        As     tau( 125) = (   0.4188270   0.7471350   0.0797580  )
       126        Sb     tau( 126) = (   0.4192160   0.9134220   0.2519500  )
       127        As     tau( 127) = (   0.5854750   0.7479920   0.2542020  )
       128        Sb     tau( 128) = (   0.5864060   0.9119870   0.0816550  )
       129        Ga     tau( 129) = (   0.3349380   0.6698050   0.3406110  )
       130        Ga     tau( 130) = (   0.3398930   0.8290020   0.5007050  )
       131        Ga     tau( 131) = (   0.5072830   0.6699280   0.4955570  )
       132        Ga     tau( 132) = (   0.5049040   0.8263010   0.3387190  )
       133        As     tau( 133) = (   0.4206890   0.7485750   0.4187090  )
       134        As     tau( 134) = (   0.4210680   0.9107710   0.5791690  )
       135        As     tau( 135) = (   0.5844510   0.7505910   0.5789000  )
       136        As     tau( 136) = (   0.5861100   0.9084120   0.4180500  )
       137        Ga     tau( 137) = (   0.3298610   0.6720440   0.6621520  )
       138        Ga     tau( 138) = (   0.3324850   0.8307990   0.8431320  )
       139        Ga     tau( 139) = (   0.5041270   0.6613500   0.8364220  )
       140        Ga     tau( 140) = (   0.5031250   0.8312010   0.6584170  )
       141        Sb     tau( 141) = (   0.4185190   0.7499480   0.7514630  )
       142        As     tau( 142) = (   0.4145670   0.9131810   0.9185190  )
       143        As     tau( 143) = (   0.5802490   0.7482990   0.9174360  )
       144        Sb     tau( 144) = (   0.5853210   0.9143810   0.7505330  )
       145        Ga     tau( 145) = (   0.6771580  -0.0001650   0.0018830  )
       146        Ga     tau( 146) = (   0.6776830   0.1660400   0.1677120  )
       147        Ga     tau( 147) = (   0.8343190  -0.0016160   0.1682760  )
       148        Ga     tau( 148) = (   0.8255540   0.1660160  -0.0012340  )
       149        As     tau( 149) = (   0.7542560   0.0816640   0.0853770  )
       150        As     tau( 150) = (   0.7533130   0.2486190   0.2515650  )
       151        As     tau( 151) = (   0.9176680   0.0800330   0.2461990  )
       152        Sb     tau( 152) = (   0.9155620   0.2483750   0.0844220  )
       153        Ga     tau( 153) = (   0.6676150  -0.0122750   0.3356710  )
       154        Ga     tau( 154) = (   0.6661060   0.1736530   0.4991580  )
       155        Ga     tau( 155) = (   0.8294300  -0.0069520   0.5033550  )
       156        Ga     tau( 156) = (   0.8352800   0.1621520   0.3234390  )
       157        Sb     tau( 157) = (   0.7497370   0.0819970   0.4156400  )
       158        As     tau( 158) = (   0.7455880   0.2517540   0.5832400  )
       159        Sb     tau( 159) = (   0.9157100   0.0813230   0.5844990  )
       160        Sb     tau( 160) = (   0.9140250   0.2497600   0.4128950  )
       161        Ga     tau( 161) = (   0.6745370  -0.0002570   0.6673640  )
       162        Ga     tau( 162) = (   0.6688190   0.1691110   0.8265230  )
       163        Ga     tau( 163) = (   0.8286520  -0.0033190   0.8288500  )
       164        Ga     tau( 164) = (   0.8245870   0.1672490   0.6644960  )
       165        As     tau( 165) = (   0.7502500   0.0835810   0.7485100  )
       166        As     tau( 166) = (   0.7476350   0.2478590   0.9134100  )
       167        Sb     tau( 167) = (   0.9155650   0.0794210   0.9185150  )
       168        Sb     tau( 168) = (   0.9119920   0.2481970   0.7528880  )
       169        Ga     tau( 169) = (   0.6709410   0.3313430  -0.0066570  )
       170        Ga     tau( 170) = (   0.6665200   0.5123450   0.1658940  )
       171        Ga     tau( 171) = (   0.8333310   0.3348930   0.1753710  )
       172        Ga     tau( 172) = (   0.8401090   0.5059530   0.0085780  )
       173        Sb     tau( 173) = (   0.7503370   0.4189810   0.0857230  )
       174        As     tau( 174) = (   0.7509690   0.5854880   0.2505860  )
       175        As     tau( 175) = (   0.9136790   0.4191360   0.2515180  )
       176        As     tau( 176) = (   0.9195510   0.5861880   0.0894690  )
       177        Ga     tau( 177) = (   0.6706970   0.3284130   0.3355760  )
       178        Ga     tau( 178) = (   0.6626530   0.4963660   0.4948900  )
       179        Ga     tau( 179) = (   0.8226210   0.3324650   0.4982340  )
       180        Ga     tau( 180) = (   0.8260180   0.4963260   0.3305020  )
       181        As     tau( 181) = (   0.7458940   0.4149910   0.4145880  )
       182        Sb     tau( 182) = (   0.7455770   0.5839980   0.5824650  )
       183        Sb     tau( 183) = (   0.9108450   0.4169690   0.5813040  )
       184        Sb     tau( 184) = (   0.9123490   0.5882800   0.4109000  )
       185        Ga     tau( 185) = (   0.6663710   0.3342290   0.6644000  )
       186        Ga     tau( 186) = (   0.6660320   0.5008360   0.8244480  )
       187        Ga     tau( 187) = (   0.8234930   0.3348530   0.8344440  )
       188        Ga     tau( 188) = (   0.8260700   0.4957150   0.6724660  )
       189        As     tau( 189) = (   0.7445910   0.4137780   0.7492200  )
       190        Sb     tau( 190) = (   0.7474780   0.5827890   0.9188830  )
       191        Sb     tau( 191) = (   0.9164400   0.4180600   0.9171780  )
       192        Sb     tau( 192) = (   0.9164880   0.5833190   0.7510870  )
       193        Ga     tau( 193) = (   0.6574220   0.6681670   0.0013210  )
       194        Ga     tau( 194) = (   0.6671370   0.8316790   0.1775670  )
       195        Ga     tau( 195) = (   0.8385040   0.6642350   0.1714710  )
       196        Ga     tau( 196) = (   0.8339430   0.8423230   0.0029330  )
       197        Sb     tau( 197) = (   0.7501910   0.7497600   0.0865420  )
       198        As     tau( 198) = (   0.7514880   0.9147540   0.2506070  )
       199        As     tau( 199) = (   0.9177160   0.7505560   0.2483290  )
       200        As     tau( 200) = (   0.9156790   0.9165930   0.0890210  )
       201        Ga     tau( 201) = (   0.6692860   0.6660820   0.3339800  )
       202        Ga     tau( 202) = (   0.6685610   0.8314800   0.5001320  )
       203        Ga     tau( 203) = (   0.8295820   0.6762130   0.4982150  )
       204        Ga     tau( 204) = (   0.8299690   0.8282380   0.3272890  )
       205        As     tau( 205) = (   0.7479490   0.7520740   0.4139830  )
       206        As     tau( 206) = (   0.7488480   0.9141200   0.5829390  )
       207        As     tau( 207) = (   0.9131690   0.7532610   0.5800650  )
       208        Sb     tau( 208) = (   0.9157170   0.9127890   0.4129870  )
       209        Ga     tau( 209) = (   0.6552780   0.6676320   0.6658410  )
       210        Ga     tau( 210) = (   0.6663850   0.8325420   0.8446570  )
       211        Ga     tau( 211) = (   0.8317010   0.6693160   0.8353790  )
       212        Ga     tau( 212) = (   0.8356050   0.8382740   0.6609020  )
       213        Sb     tau( 213) = (   0.7474400   0.7530940   0.7483310  )
       214        As     tau( 214) = (   0.7521350   0.9178280   0.9177320  )
       215        Sb     tau( 215) = (   0.9183910   0.7528060   0.9206860  )
       216        As     tau( 216) = (   0.9121090   0.9186800   0.7479130  )

     number of k points=     8
                       cart. coord. in units 2pi/alat
        k(    1) = (   0.0000000   0.0000000   0.0000000), wk =   0.2500000
        k(    2) = (   0.0000000   0.0000000  -0.5000000), wk =   0.2500000
        k(    3) = (   0.0000000  -0.5000000  -0.5000000), wk =   0.2500000
        k(    4) = (  -0.5000000  -0.5000000  -0.5000000), wk =   0.2500000
        k(    5) = (  -0.5000000   0.0000000   0.0000000), wk =   0.2500000
        k(    6) = (   0.0000000  -0.5000000   0.0000000), wk =   0.2500000
        k(    7) = (  -0.5000000   0.0000000   0.5000000), wk =   0.2500000
        k(    8) = (  -0.5000000   0.5000000   0.0000000), wk =   0.2500000

     Dense  grid:  6642417 G-vectors     FFT dimensions: ( 240, 240, 240)

     Estimated max dynamical RAM per process >       3.18 GB

     Estimated total dynamical RAM >    1615.43 GB

     Initial potential from superposition of free atoms

     starting charge    3023.6679, renormalised to    3024.0000

     STARTING HUBBARD OCCUPATIONS:

     =================== HUBBARD OCCUPATIONS ===================
     ------------------------ ATOM    1 ------------------------
     Tr[ns(  1)] =   1.00000
     eigenvalues:
       0.167  0.167  0.167
     eigenvectors (columns):
       1.000  0.000  0.000
       0.000  1.000  0.000
       0.000  0.000  1.000
     occupation matrix ns (before diag.):
       0.167  0.000  0.000
       0.000  0.167  0.000
       0.000  0.000  0.167
     ------------------------ ATOM    2 ------------------------
     Tr[ns(  2)] =   1.00000
     eigenvalues:
       0.167  0.167  0.167
     eigenvectors (columns):
       1.000  0.000  0.000
       0.000  1.000  0.000
       0.000  0.000  1.000
     occupation matrix ns (before diag.):
       0.167  0.000  0.000
       0.000  0.167  0.000
       0.000  0.000  0.167
     ------------------------ ATOM    3 ------------------------
     Tr[ns(  3)] =   1.00000
     eigenvalues:
       0.167  0.167  0.167
     eigenvectors (columns):
       1.000  0.000  0.000
       0.000  1.000  0.000
       0.000  0.000  1.000
     occupation matrix ns (before diag.):
       0.167  0.000  0.000
       0.000  0.167  0.000
       0.000  0.000  0.167
     ------------------------ ATOM    4 ------------------------
     Tr[ns(  4)] =   1.00000
     eigenvalues:
       0.167  0.167  0.167
     eigenvectors (columns):
       1.000  0.000  0.000
       0.000  1.000  0.000
       0.000  0.000  1.000
     occupation matrix ns (before diag.):
       0.167  0.000  0.000
       0.000  0.167  0.000
       0.000  0.000  0.167
     ------------------------ ATOM    5 ------------------------
     Tr[ns(  5)] =   3.00000
     eigenvalues:
       0.500  0.500  0.500
     eigenvectors (columns):
       1.000  0.000  0.000
       0.000  1.000  0.000
       0.000  0.000  1.000
     occupation matrix ns (before diag.):
       0.500  0.000  0.000
       0.000  0.500  0.000
       0.000  0.000  0.500
     ------------------------ ATOM    6 ------------------------
     Tr[ns(  6)] =   3.00000
     eigenvalues:
       0.500  0.500  0.500
     eigenvectors (columns):
       1.000  0.000  0.000
       0.000  1.000  0.000
       0.000  0.000  1.000
     occupation matrix ns (before diag.):
       0.500  0.000  0.000
       0.000  0.500  0.000
       0.000  0.000  0.500
     ------------------------ ATOM    7 ------------------------
     Tr[ns(  7)] =   3.00000
     eigenvalues:
       0.500  0.500  0.500
     eigenvectors (columns):
       1.000  0.000  0.000
       0.000  1.000  0.000
       0.000  0.000  1.000
     occupation matrix ns (before diag.):
       0.500  0.000  0.000
       0.000  0.500  0.000
       0.000  0.000  0.500
     ------------------------ ATOM    8 ------------------------
     Tr[ns(  8)] =   3.00000
     eigenvalues:
       0.500  0.500  0.500
     eigenvectors (columns):
       1.000  0.000  0.000
       0.000  1.000  0.000
       0.000  0.000  1.000
     occupation matrix ns (before diag.):
       0.500  0.000  0.000
       0.000  0.500  0.000
       0.000  0.000  0.500
     ------------------------ ATOM    9 ------------------------
     Tr[ns(  9)] =   1.00000
     eigenvalues:
       0.167  0.167  0.167
     eigenvectors (columns):
       1.000  0.000  0.000
       0.000  1.000  0.000
       0.000  0.000  1.000
     occupation matrix ns (before diag.):
       0.167  0.000  0.000
       0.000  0.167  0.000
       0.000  0.000  0.167
     ------------------------ ATOM   10 ------------------------
     Tr[ns( 10)] =   1.00000
     eigenvalues:
       0.167  0.167  0.167
     eigenvectors (columns):
       1.000  0.000  0.000
       0.000  1.000  0.000
       0.000  0.000  1.000
     occupation matrix ns (before diag.):
       0.167  0.000  0.000
       0.000  0.167  0.000
       0.000  0.000  0.167
     ------------------------ ATOM   11 ------------------------
     Tr[ns( 11)] =   1.00000
     eigenvalues:
       0.167  0.167  0.167
     eigenvectors (columns):
       1.000  0.000  0.000
       0.000  1.000  0.000
       0.000  0.000  1.000
     occupation matrix ns (before diag.):
       0.167  0.000  0.000
       0.000  0.167  0.000
       0.000  0.000  0.167
     ------------------------ ATOM   12 ------------------------
     Tr[ns( 12)] =   1.00000
     eigenvalues:
       0.167  0.167  0.167
     eigenvectors (columns):
       1.000  0.000  0.000
       0.000  1.000  0.000
       0.000  0.000  1.000
     occupation matrix ns (before diag.):
       0.167  0.000  0.000
       0.000  0.167  0.000
       0.000  0.000  0.167
     ------------------------ ATOM   13 ------------------------
     Tr[ns( 13)] =   3.00000
     eigenvalues:
       0.500  0.500  0.500
     eigenvectors (columns):
       1.000  0.000  0.000
       0.000  1.000  0.000
       0.000  0.000  1.000
     occupation matrix ns (before diag.):
       0.500  0.000  0.000
       0.000  0.500  0.000
       0.000  0.000  0.500
     ------------------------ ATOM   14 ------------------------
     Tr[ns( 14)] =   3.00000
     eigenvalues:
       0.500  0.500  0.500
     eigenvectors (columns):
       1.000  0.000  0.000
       0.000  1.000  0.000
       0.000  0.000  1.000
     occupation matrix ns (before diag.):
       0.500  0.000  0.000
       0.000  0.500  0.000
       0.000  0.000  0.500
     ------------------------ ATOM   15 ------------------------
     Tr[ns( 15)] =   3.00000
     eigenvalues:
       0.500  0.500  0.500
     eigenvectors (columns):
       1.000  0.000  0.000
       0.000  1.000  0.000
       0.000  0.000  1.000
     occupation matrix ns (before diag.):
       0.500  0.000  0.000
       0.000  0.500  0.000
       0.000  0.000  0.500
     ------------------------ ATOM   16 ------------------------
     Tr[ns( 16)] =   3.00000
     eigenvalues:
       0.500  0.500  0.500
     eigenvectors (columns):
       1.000  0.000  0.000
       0.000  1.000  0.000
       0.000  0.000  1.000
     occupation matrix ns (before diag.):
       0.500  0.000  0.000
       0.000  0.500  0.000
       0.000  0.000  0.500
     ------------------------ ATOM   17 ------------------------
     Tr[ns( 17)] =   1.00000
     eigenvalues:
       0.167  0.167  0.167
     eigenvectors (columns):
       1.000  0.000  0.000
       0.000  1.000  0.000
       0.000  0.000  1.000
     occupation matrix ns (before diag.):
       0.167  0.000  0.000
       0.000  0.167  0.000
       0.000  0.000  0.167
     ------------------------ ATOM   18 ------------------------
     Tr[ns( 18)] =   1.00000
     eigenvalues:
       0.167  0.167  0.167
     eigenvectors (columns):
       1.000  0.000  0.000
       0.000  1.000  0.000
       0.000  0.000  1.000
     occupation matrix ns (before diag.):
       0.167  0.000  0.000
       0.000  0.167  0.000
       0.000  0.000  0.167
     ------------------------ ATOM   19 ------------------------
     Tr[ns( 19)] =   1.00000
     eigenvalues:
       0.167  0.167  0.167
     eigenvectors (columns):
       1.000  0.000  0.000
       0.000  1.000  0.000
       0.000  0.000  1.000
     occupation matrix ns (before diag.):
       0.167  0.000  0.000
       0.000  0.167  0.000
       0.000  0.000  0.167
     ------------------------ ATOM   20 ------------------------
     Tr[ns( 20)] =   1.00000
     eigenvalues:
       0.167  0.167  0.167
     eigenvectors (columns):
       1.000  0.000  0.000
       0.000  1.000  0.000
       0.000  0.000  1.000
     occupation matrix ns (before diag.):
       0.167  0.000  0.000
       0.000  0.167  0.000
       0.000  0.000  0.167
     ------------------------ ATOM   21 ------------------------
     Tr[ns( 21)] =   3.00000
     eigenvalues:
       0.500  0.500  0.500
     eigenvectors (columns):
       1.000  0.000  0.000
       0.000  1.000  0.000
       0.000  0.000  1.000
     occupation matrix ns (before diag.):
       0.500  0.000  0.000
       0.000  0.500  0.000
       0.000  0.000  0.500
     ------------------------ ATOM   22 ------------------------
     Tr[ns( 22)] =   3.00000
     eigenvalues:
       0.500  0.500  0.500
     eigenvectors (columns):
       1.000  0.000  0.000
       0.000  1.000  0.000
       0.000  0.000  1.000
     occupation matrix ns (before diag.):
       0.500  0.000  0.000
       0.000  0.500  0.000
       0.000  0.000  0.500
     ------------------------ ATOM   23 ------------------------
     Tr[ns( 23)] =   3.00000
     eigenvalues:
       0.500  0.500  0.500
     eigenvectors (columns):
       1.000  0.000  0.000
       0.000  1.000  0.000
       0.000  0.000  1.000
     occupation matrix ns (before diag.):
       0.500  0.000  0.000
       0.000  0.500  0.000
       0.000  0.000  0.500
     ------------------------ ATOM   24 ------------------------
     Tr[ns( 24)] =   3.00000
     eigenvalues:
       0.500  0.500  0.500
     eigenvectors (columns):
       1.000  0.000  0.000
       0.000  1.000  0.000
       0.000  0.000  1.000
     occupation matrix ns (before diag.):
       0.500  0.000  0.000
       0.000  0.500  0.000
       0.000  0.000  0.500
     ------------------------ ATOM   25 ------------------------
     Tr[ns( 25)] =   1.00000
     eigenvalues:
       0.167  0.167  0.167
     eigenvectors (columns):
       1.000  0.000  0.000
       0.000  1.000  0.000
       0.000  0.000  1.000
     occupation matrix ns (before diag.):
       0.167  0.000  0.000
       0.000  0.167  0.000
       0.000  0.000  0.167
     ------------------------ ATOM   26 ------------------------
     Tr[ns( 26)] =   1.00000
     eigenvalues:
       0.167  0.167  0.167
     eigenvectors (columns):
       1.000  0.000  0.000
       0.000  1.000  0.000
       0.000  0.000  1.000
     occupation matrix ns (before diag.):
       0.167  0.000  0.000
       0.000  0.167  0.000
       0.000  0.000  0.167
     ------------------------ ATOM   27 ------------------------
     Tr[ns( 27)] =   1.00000
     eigenvalues:
       0.167  0.167  0.167
     eigenvectors (columns):
       1.000  0.000  0.000
       0.000  1.000  0.000
       0.000  0.000  1.000
     occupation matrix ns (before diag.):
       0.167  0.000  0.000
       0.000  0.167  0.000
       0.000  0.000  0.167
     ------------------------ ATOM   28 ------------------------
     Tr[ns( 28)] =   1.00000
     eigenvalues:
       0.167  0.167  0.167
     eigenvectors (columns):
       1.000  0.000  0.000
       0.000  1.000  0.000
       0.000  0.000  1.000
     occupation matrix ns (before diag.):
       0.167  0.000  0.000
       0.000  0.167  0.000
       0.000  0.000  0.167
     ------------------------ ATOM   29 ------------------------
     Tr[ns( 29)] =   3.00000
     eigenvalues:
       0.500  0.500  0.500
     eigenvectors (columns):
       1.000  0.000  0.000
       0.000  1.000  0.000
       0.000  0.000  1.000
     occupation matrix ns (before diag.):
       0.500  0.000  0.000
       0.000  0.500  0.000
       0.000  0.000  0.500
     ------------------------ ATOM   30 ------------------------
     Tr[ns( 30)] =   3.00000
     eigenvalues:
       0.500  0.500  0.500
     eigenvectors (columns):
       1.000  0.000  0.000
       0.000  1.000  0.000
       0.000  0.000  1.000
     occupation matrix ns (before diag.):
       0.500  0.000  0.000
       0.000  0.500  0.000
       0.000  0.000  0.500
     ------------------------ ATOM   31 ------------------------
     Tr[ns( 31)] =   3.00000
     eigenvalues:
       0.500  0.500  0.500
     eigenvectors (columns):
       1.000  0.000  0.000
       0.000  1.000  0.000
       0.000  0.000  1.000
     occupation matrix ns (before diag.):
       0.500  0.000  0.000
       0.000  0.500  0.000
       0.000  0.000  0.500
     ------------------------ ATOM   32 ------------------------
     Tr[ns( 32)] =   3.00000
     eigenvalues:
       0.500  0.500  0.500
     eigenvectors (columns):
       1.000  0.000  0.000
       0.000  1.000  0.000
       0.000  0.000  1.000
     occupation matrix ns (before diag.):
       0.500  0.000  0.000
       0.000  0.500  0.000
       0.000  0.000  0.500
     ------------------------ ATOM   33 ------------------------
     Tr[ns( 33)] =   1.00000
     eigenvalues:
       0.167  0.167  0.167
     eigenvectors (columns):
       1.000  0.000  0.000
       0.000  1.000  0.000
       0.000  0.000  1.000
     occupation matrix ns (before diag.):
       0.167  0.000  0.000
       0.000  0.167  0.000
       0.000  0.000  0.167
     ------------------------ ATOM   34 ------------------------
     Tr[ns( 34)] =   1.00000
     eigenvalues:
       0.167  0.167  0.167
     eigenvectors (columns):
       1.000  0.000  0.000
       0.000  1.000  0.000
       0.000  0.000  1.000
     occupation matrix ns (before diag.):
       0.167  0.000  0.000
       0.000  0.167  0.000
       0.000  0.000  0.167
     ------------------------ ATOM   35 ------------------------
     Tr[ns( 35)] =   1.00000
     eigenvalues:
       0.167  0.167  0.167
     eigenvectors (columns):
       1.000  0.000  0.000
       0.000  1.000  0.000
       0.000  0.000  1.000
     occupation matrix ns (before diag.):
       0.167  0.000  0.000
       0.000  0.167  0.000
       0.000  0.000  0.167
     ------------------------ ATOM   36 ------------------------
     Tr[ns( 36)] =   1.00000
     eigenvalues:
       0.167  0.167  0.167
     eigenvectors (columns):
       1.000  0.000  0.000
       0.000  1.000  0.000
       0.000  0.000  1.000
     occupation matrix ns (before diag.):
       0.167  0.000  0.000
       0.000  0.167  0.000
       0.000  0.000  0.167
     ------------------------ ATOM   37 ------------------------
     Tr[ns( 37)] =   3.00000
     eigenvalues:
       0.500  0.500  0.500
     eigenvectors (columns):
       1.000  0.000  0.000
       0.000  1.000  0.000
       0.000  0.000  1.000
     occupation matrix ns (before diag.):
       0.500  0.000  0.000
       0.000  0.500  0.000
       0.000  0.000  0.500
     ------------------------ ATOM   38 ------------------------
     Tr[ns( 38)] =   3.00000
     eigenvalues:
       0.500  0.500  0.500
     eigenvectors (columns):
       1.000  0.000  0.000
       0.000  1.000  0.000
       0.000  0.000  1.000
     occupation matrix ns (before diag.):
       0.500  0.000  0.000
       0.000  0.500  0.000
       0.000  0.000  0.500
     ------------------------ ATOM   39 ------------------------
     Tr[ns( 39)] =   3.00000
     eigenvalues:
       0.500  0.500  0.500
     eigenvectors (columns):
       1.000  0.000  0.000
       0.000  1.000  0.000
       0.000  0.000  1.000
     occupation matrix ns (before diag.):
       0.500  0.000  0.000
       0.000  0.500  0.000
       0.000  0.000  0.500
     ------------------------ ATOM   40 ------------------------
     Tr[ns( 40)] =   3.00000
     eigenvalues:
       0.500  0.500  0.500
     eigenvectors (columns):
       1.000  0.000  0.000
       0.000  1.000  0.000
       0.000  0.000  1.000
     occupation matrix ns (before diag.):
       0.500  0.000  0.000
       0.000  0.500  0.000
       0.000  0.000  0.500
     ------------------------ ATOM   41 ------------------------
     Tr[ns( 41)] =   1.00000
     eigenvalues:
       0.167  0.167  0.167
     eigenvectors (columns):
       1.000  0.000  0.000
       0.000  1.000  0.000
       0.000  0.000  1.000
     occupation matrix ns (before diag.):
       0.167  0.000  0.000
       0.000  0.167  0.000
       0.000  0.000  0.167
     ------------------------ ATOM   42 ------------------------
     Tr[ns( 42)] =   1.00000
     eigenvalues:
       0.167  0.167  0.167
     eigenvectors (columns):
       1.000  0.000  0.000
       0.000  1.000  0.000
       0.000  0.000  1.000
     occupation matrix ns (before diag.):
       0.167  0.000  0.000
       0.000  0.167  0.000
       0.000  0.000  0.167
     ------------------------ ATOM   43 ------------------------
     Tr[ns( 43)] =   1.00000
     eigenvalues:
       0.167  0.167  0.167
     eigenvectors (columns):
       1.000  0.000  0.000
       0.000  1.000  0.000
       0.000  0.000  1.000
     occupation matrix ns (before diag.):
       0.167  0.000  0.000
       0.000  0.167  0.000
       0.000  0.000  0.167
     ------------------------ ATOM   44 ------------------------
     Tr[ns( 44)] =   1.00000
     eigenvalues:
       0.167  0.167  0.167
     eigenvectors (columns):
       1.000  0.000  0.000
       0.000  1.000  0.000
       0.000  0.000  1.000
     occupation matrix ns (before diag.):
       0.167  0.000  0.000
       0.000  0.167  0.000
       0.000  0.000  0.167
     ------------------------ ATOM   45 ------------------------
     Tr[ns( 45)] =   3.00000
     eigenvalues:
       0.500  0.500  0.500
     eigenvectors (columns):
       1.000  0.000  0.000
       0.000  1.000  0.000
       0.000  0.000  1.000
     occupation matrix ns (before diag.):
       0.500  0.000  0.000
       0.000  0.500  0.000
       0.000  0.000  0.500
     ------------------------ ATOM   46 ------------------------
     Tr[ns( 46)] =   3.00000
     eigenvalues:
       0.500  0.500  0.500
     eigenvectors (columns):
       1.000  0.000  0.000
       0.000  1.000  0.000
       0.000  0.000  1.000
     occupation matrix ns (before diag.):
       0.500  0.000  0.000
       0.000  0.500  0.000
       0.000  0.000  0.500
     ------------------------ ATOM   47 ------------------------
     Tr[ns( 47)] =   3.00000
     eigenvalues:
       0.500  0.500  0.500
     eigenvectors (columns):
       1.000  0.000  0.000
       0.000  1.000  0.000
       0.000  0.000  1.000
     occupation matrix ns (before diag.):
       0.500  0.000  0.000
       0.000  0.500  0.000
       0.000  0.000  0.500
     ------------------------ ATOM   48 ------------------------
     Tr[ns( 48)] =   3.00000
     eigenvalues:
       0.500  0.500  0.500
     eigenvectors (columns):
       1.000  0.000  0.000
       0.000  1.000  0.000
       0.000  0.000  1.000
     occupation matrix ns (before diag.):
       0.500  0.000  0.000
       0.000  0.500  0.000
       0.000  0.000  0.500
     ------------------------ ATOM   49 ------------------------
     Tr[ns( 49)] =   1.00000
     eigenvalues:
       0.167  0.167  0.167
     eigenvectors (columns):
       1.000  0.000  0.000
       0.000  1.000  0.000
       0.000  0.000  1.000
     occupation matrix ns (before diag.):
       0.167  0.000  0.000
       0.000  0.167  0.000
       0.000  0.000  0.167
     ------------------------ ATOM   50 ------------------------
     Tr[ns( 50)] =   1.00000
     eigenvalues:
       0.167  0.167  0.167
     eigenvectors (columns):
       1.000  0.000  0.000
       0.000  1.000  0.000
       0.000  0.000  1.000
     occupation matrix ns (before diag.):
       0.167  0.000  0.000
       0.000  0.167  0.000
       0.000  0.000  0.167
     ------------------------ ATOM   51 ------------------------
     Tr[ns( 51)] =   1.00000
     eigenvalues:
       0.167  0.167  0.167
     eigenvectors (columns):
       1.000  0.000  0.000
       0.000  1.000  0.000
       0.000  0.000  1.000
     occupation matrix ns (before diag.):
       0.167  0.000  0.000
       0.000  0.167  0.000
       0.000  0.000  0.167
     ------------------------ ATOM   52 ------------------------
     Tr[ns( 52)] =   1.00000
     eigenvalues:
       0.167  0.167  0.167
     eigenvectors (columns):
       1.000  0.000  0.000
       0.000  1.000  0.000
       0.000  0.000  1.000
     occupation matrix ns (before diag.):
       0.167  0.000  0.000
       0.000  0.167  0.000
       0.000  0.000  0.167
     ------------------------ ATOM   53 ------------------------
     Tr[ns( 53)] =   3.00000
     eigenvalues:
       0.500  0.500  0.500
     eigenvectors (columns):
       1.000  0.000  0.000
       0.000  1.000  0.000
       0.000  0.000  1.000
     occupation matrix ns (before diag.):
       0.500  0.000  0.000
       0.000  0.500  0.000
       0.000  0.000  0.500
     ------------------------ ATOM   54 ------------------------
     Tr[ns( 54)] =   3.00000
     eigenvalues:
       0.500  0.500  0.500
     eigenvectors (columns):
       1.000  0.000  0.000
       0.000  1.000  0.000
       0.000  0.000  1.000
     occupation matrix ns (before diag.):
       0.500  0.000  0.000
       0.000  0.500  0.000
       0.000  0.000  0.500
     ------------------------ ATOM   55 ------------------------
     Tr[ns( 55)] =   3.00000
     eigenvalues:
       0.500  0.500  0.500
     eigenvectors (columns):
       1.000  0.000  0.000
       0.000  1.000  0.000
       0.000  0.000  1.000
     occupation matrix ns (before diag.):
       0.500  0.000  0.000
       0.000  0.500  0.000
       0.000  0.000  0.500
     ------------------------ ATOM   56 ------------------------
     Tr[ns( 56)] =   3.00000
     eigenvalues:
       0.500  0.500  0.500
     eigenvectors (columns):
       1.000  0.000  0.000
       0.000  1.000  0.000
       0.000  0.000  1.000
     occupation matrix ns (before diag.):
       0.500  0.000  0.000
       0.000  0.500  0.000
       0.000  0.000  0.500
     ------------------------ ATOM   57 ------------------------
     Tr[ns( 57)] =   1.00000
     eigenvalues:
       0.167  0.167  0.167
     eigenvectors (columns):
       1.000  0.000  0.000
       0.000  1.000  0.000
       0.000  0.000  1.000
     occupation matrix ns (before diag.):
       0.167  0.000  0.000
       0.000  0.167  0.000
       0.000  0.000  0.167
     ------------------------ ATOM   58 ------------------------
     Tr[ns( 58)] =   1.00000
     eigenvalues:
       0.167  0.167  0.167
     eigenvectors (columns):
       1.000  0.000  0.000
       0.000  1.000  0.000
       0.000  0.000  1.000
     occupation matrix ns (before diag.):
       0.167  0.000  0.000
       0.000  0.167  0.000
       0.000  0.000  0.167
     ------------------------ ATOM   59 ------------------------
     Tr[ns( 59)] =   1.00000
     eigenvalues:
       0.167  0.167  0.167
     eigenvectors (columns):
       1.000  0.000  0.000
       0.000  1.000  0.000
       0.000  0.000  1.000
     occupation matrix ns (before diag.):
       0.167  0.000  0.000
       0.000  0.167  0.000
       0.000  0.000  0.167
     ------------------------ ATOM   60 ------------------------
     Tr[ns( 60)] =   1.00000
     eigenvalues:
       0.167  0.167  0.167
     eigenvectors (columns):
       1.000  0.000  0.000
       0.000  1.000  0.000
       0.000  0.000  1.000
     occupation matrix ns (before diag.):
       0.167  0.000  0.000
       0.000  0.167  0.000
       0.000  0.000  0.167
     ------------------------ ATOM   61 ------------------------
     Tr[ns( 61)] =   3.00000
     eigenvalues:
       0.500  0.500  0.500
     eigenvectors (columns):
       1.000  0.000  0.000
       0.000  1.000  0.000
       0.000  0.000  1.000
     occupation matrix ns (before diag.):
       0.500  0.000  0.000
       0.000  0.500  0.000
       0.000  0.000  0.500
     ------------------------ ATOM   62 ------------------------
     Tr[ns( 62)] =   3.00000
     eigenvalues:
       0.500  0.500  0.500
     eigenvectors (columns):
       1.000  0.000  0.000
       0.000  1.000  0.000
       0.000  0.000  1.000
     occupation matrix ns (before diag.):
       0.500  0.000  0.000
       0.000  0.500  0.000
       0.000  0.000  0.500
     ------------------------ ATOM   63 ------------------------
     Tr[ns( 63)] =   3.00000
     eigenvalues:
       0.500  0.500  0.500
     eigenvectors (columns):
       1.000  0.000  0.000
       0.000  1.000  0.000
       0.000  0.000  1.000
     occupation matrix ns (before diag.):
       0.500  0.000  0.000
       0.000  0.500  0.000
       0.000  0.000  0.500
     ------------------------ ATOM   64 ------------------------
     Tr[ns( 64)] =   3.00000
     eigenvalues:
       0.500  0.500  0.500
     eigenvectors (columns):
       1.000  0.000  0.000
       0.000  1.000  0.000
       0.000  0.000  1.000
     occupation matrix ns (before diag.):
       0.500  0.000  0.000
       0.000  0.500  0.000
       0.000  0.000  0.500
     ------------------------ ATOM   65 ------------------------
     Tr[ns( 65)] =   1.00000
     eigenvalues:
       0.167  0.167  0.167
     eigenvectors (columns):
       1.000  0.000  0.000
       0.000  1.000  0.000
       0.000  0.000  1.000
     occupation matrix ns (before diag.):
       0.167  0.000  0.000
       0.000  0.167  0.000
       0.000  0.000  0.167
     ------------------------ ATOM   66 ------------------------
     Tr[ns( 66)] =   1.00000
     eigenvalues:
       0.167  0.167  0.167
     eigenvectors (columns):
       1.000  0.000  0.000
       0.000  1.000  0.000
       0.000  0.000  1.000
     occupation matrix ns (before diag.):
       0.167  0.000  0.000
       0.000  0.167  0.000
       0.000  0.000  0.167
     ------------------------ ATOM   67 ------------------------
     Tr[ns( 67)] =   1.00000
     eigenvalues:
       0.167  0.167  0.167
     eigenvectors (columns):
       1.000  0.000  0.000
       0.000  1.000  0.000
       0.000  0.000  1.000
     occupation matrix ns (before diag.):
       0.167  0.000  0.000
       0.000  0.167  0.000
       0.000  0.000  0.167
     ------------------------ ATOM   68 ------------------------
     Tr[ns( 68)] =   1.00000
     eigenvalues:
       0.167  0.167  0.167
     eigenvectors (columns):
       1.000  0.000  0.000
       0.000  1.000  0.000
       0.000  0.000  1.000
     occupation matrix ns (before diag.):
       0.167  0.000  0.000
       0.000  0.167  0.000
       0.000  0.000  0.167
     ------------------------ ATOM   69 ------------------------
     Tr[ns( 69)] =   3.00000
     eigenvalues:
       0.500  0.500  0.500
     eigenvectors (columns):
       1.000  0.000  0.000
       0.000  1.000  0.000
       0.000  0.000  1.000
     occupation matrix ns (before diag.):
       0.500  0.000  0.000
       0.000  0.500  0.000
       0.000  0.000  0.500
     ------------------------ ATOM   70 ------------------------
     Tr[ns( 70)] =   3.00000
     eigenvalues:
       0.500  0.500  0.500
     eigenvectors (columns):
       1.000  0.000  0.000
       0.000  1.000  0.000
       0.000  0.000  1.000
     occupation matrix ns (before diag.):
       0.500  0.000  0.000
       0.000  0.500  0.000
       0.000  0.000  0.500
     ------------------------ ATOM   71 ------------------------
     Tr[ns( 71)] =   3.00000
     eigenvalues:
       0.500  0.500  0.500
     eigenvectors (columns):
       1.000  0.000  0.000
       0.000  1.000  0.000
       0.000  0.000  1.000
     occupation matrix ns (before diag.):
       0.500  0.000  0.000
       0.000  0.500  0.000
       0.000  0.000  0.500
     ------------------------ ATOM   72 ------------------------
     Tr[ns( 72)] =   3.00000
     eigenvalues:
       0.500  0.500  0.500
     eigenvectors (columns):
       1.000  0.000  0.000
       0.000  1.000  0.000
       0.000  0.000  1.000
     occupation matrix ns (before diag.):
       0.500  0.000  0.000
       0.000  0.500  0.000
       0.000  0.000  0.500
     ------------------------ ATOM   73 ------------------------
     Tr[ns( 73)] =   1.00000
     eigenvalues:
       0.167  0.167  0.167
     eigenvectors (columns):
       1.000  0.000  0.000
       0.000  1.000  0.000
       0.000  0.000  1.000
     occupation matrix ns (before diag.):
       0.167  0.000  0.000
       0.000  0.167  0.000
       0.000  0.000  0.167
     ------------------------ ATOM   74 ------------------------
     Tr[ns( 74)] =   1.00000
     eigenvalues:
       0.167  0.167  0.167
     eigenvectors (columns):
       1.000  0.000  0.000
       0.000  1.000  0.000
       0.000  0.000  1.000
     occupation matrix ns (before diag.):
       0.167  0.000  0.000
       0.000  0.167  0.000
       0.000  0.000  0.167
     ------------------------ ATOM   75 ------------------------
     Tr[ns( 75)] =   1.00000
     eigenvalues:
       0.167  0.167  0.167
     eigenvectors (columns):
       1.000  0.000  0.000
       0.000  1.000  0.000
       0.000  0.000  1.000
     occupation matrix ns (before diag.):
       0.167  0.000  0.000
       0.000  0.167  0.000
       0.000  0.000  0.167
     ------------------------ ATOM   76 ------------------------
     Tr[ns( 76)] =   1.00000
     eigenvalues:
       0.167  0.167  0.167
     eigenvectors (columns):
       1.000  0.000  0.000
       0.000  1.000  0.000
       0.000  0.000  1.000
     occupation matrix ns (before diag.):
       0.167  0.000  0.000
       0.000  0.167  0.000
       0.000  0.000  0.167
     ------------------------ ATOM   77 ------------------------
     Tr[ns( 77)] =   3.00000
     eigenvalues:
       0.500  0.500  0.500
     eigenvectors (columns):
       1.000  0.000  0.000
       0.000  1.000  0.000
       0.000  0.000  1.000
     occupation matrix ns (before diag.):
       0.500  0.000  0.000
       0.000  0.500  0.000
       0.000  0.000  0.500
     ------------------------ ATOM   78 ------------------------
     Tr[ns( 78)] =   3.00000
     eigenvalues:
       0.500  0.500  0.500
     eigenvectors (columns):
       1.000  0.000  0.000
       0.000  1.000  0.000
       0.000  0.000  1.000
     occupation matrix ns (before diag.):
       0.500  0.000  0.000
       0.000  0.500  0.000
       0.000  0.000  0.500
     ------------------------ ATOM   79 ------------------------
     Tr[ns( 79)] =   3.00000
     eigenvalues:
       0.500  0.500  0.500
     eigenvectors (columns):
       1.000  0.000  0.000
       0.000  1.000  0.000
       0.000  0.000  1.000
     occupation matrix ns (before diag.):
       0.500  0.000  0.000
       0.000  0.500  0.000
       0.000  0.000  0.500
     ------------------------ ATOM   80 ------------------------
     Tr[ns( 80)] =   3.00000
     eigenvalues:
       0.500  0.500  0.500
     eigenvectors (columns):
       1.000  0.000  0.000
       0.000  1.000  0.000
       0.000  0.000  1.000
     occupation matrix ns (before diag.):
       0.500  0.000  0.000
       0.000  0.500  0.000
       0.000  0.000  0.500
     ------------------------ ATOM   81 ------------------------
     Tr[ns( 81)] =   1.00000
     eigenvalues:
       0.167  0.167  0.167
     eigenvectors (columns):
       1.000  0.000  0.000
       0.000  1.000  0.000
       0.000  0.000  1.000
     occupation matrix ns (before diag.):
       0.167  0.000  0.000
       0.000  0.167  0.000
       0.000  0.000  0.167
     ------------------------ ATOM   82 ------------------------
     Tr[ns( 82)] =   1.00000
     eigenvalues:
       0.167  0.167  0.167
     eigenvectors (columns):
       1.000  0.000  0.000
       0.000  1.000  0.000
       0.000  0.000  1.000
     occupation matrix ns (before diag.):
       0.167  0.000  0.000
       0.000  0.167  0.000
       0.000  0.000  0.167
     ------------------------ ATOM   83 ------------------------
     Tr[ns( 83)] =   1.00000
     eigenvalues:
       0.167  0.167  0.167
     eigenvectors (columns):
       1.000  0.000  0.000
       0.000  1.000  0.000
       0.000  0.000  1.000
     occupation matrix ns (before diag.):
       0.167  0.000  0.000
       0.000  0.167  0.000
       0.000  0.000  0.167
     ------------------------ ATOM   84 ------------------------
     Tr[ns( 84)] =   1.00000
     eigenvalues:
       0.167  0.167  0.167
     eigenvectors (columns):
       1.000  0.000  0.000
       0.000  1.000  0.000
       0.000  0.000  1.000
     occupation matrix ns (before diag.):
       0.167  0.000  0.000
       0.000  0.167  0.000
       0.000  0.000  0.167
     ------------------------ ATOM   85 ------------------------
     Tr[ns( 85)] =   3.00000
     eigenvalues:
       0.500  0.500  0.500
     eigenvectors (columns):
       1.000  0.000  0.000
       0.000  1.000  0.000
       0.000  0.000  1.000
     occupation matrix ns (before diag.):
       0.500  0.000  0.000
       0.000  0.500  0.000
       0.000  0.000  0.500
     ------------------------ ATOM   86 ------------------------
     Tr[ns( 86)] =   3.00000
     eigenvalues:
       0.500  0.500  0.500
     eigenvectors (columns):
       1.000  0.000  0.000
       0.000  1.000  0.000
       0.000  0.000  1.000
     occupation matrix ns (before diag.):
       0.500  0.000  0.000
       0.000  0.500  0.000
       0.000  0.000  0.500
     ------------------------ ATOM   87 ------------------------
     Tr[ns( 87)] =   3.00000
     eigenvalues:
       0.500  0.500  0.500
     eigenvectors (columns):
       1.000  0.000  0.000
       0.000  1.000  0.000
       0.000  0.000  1.000
     occupation matrix ns (before diag.):
       0.500  0.000  0.000
       0.000  0.500  0.000
       0.000  0.000  0.500
     ------------------------ ATOM   88 ------------------------
     Tr[ns( 88)] =   3.00000
     eigenvalues:
       0.500  0.500  0.500
     eigenvectors (columns):
       1.000  0.000  0.000
       0.000  1.000  0.000
       0.000  0.000  1.000
     occupation matrix ns (before diag.):
       0.500  0.000  0.000
       0.000  0.500  0.000
       0.000  0.000  0.500
     ------------------------ ATOM   89 ------------------------
     Tr[ns( 89)] =   1.00000
     eigenvalues:
       0.167  0.167  0.167
     eigenvectors (columns):
       1.000  0.000  0.000
       0.000  1.000  0.000
       0.000  0.000  1.000
     occupation matrix ns (before diag.):
       0.167  0.000  0.000
       0.000  0.167  0.000
       0.000  0.000  0.167
     ------------------------ ATOM   90 ------------------------
     Tr[ns( 90)] =   1.00000
     eigenvalues:
       0.167  0.167  0.167
     eigenvectors (columns):
       1.000  0.000  0.000
       0.000  1.000  0.000
       0.000  0.000  1.000
     occupation matrix ns (before diag.):
       0.167  0.000  0.000
       0.000  0.167  0.000
       0.000  0.000  0.167
     ------------------------ ATOM   91 ------------------------
     Tr[ns( 91)] =   1.00000
     eigenvalues:
       0.167  0.167  0.167
     eigenvectors (columns):
       1.000  0.000  0.000
       0.000  1.000  0.000
       0.000  0.000  1.000
     occupation matrix ns (before diag.):
       0.167  0.000  0.000
       0.000  0.167  0.000
       0.000  0.000  0.167
     ------------------------ ATOM   92 ------------------------
     Tr[ns( 92)] =   1.00000
     eigenvalues:
       0.167  0.167  0.167
     eigenvectors (columns):
       1.000  0.000  0.000
       0.000  1.000  0.000
       0.000  0.000  1.000
     occupation matrix ns (before diag.):
       0.167  0.000  0.000
       0.000  0.167  0.000
       0.000  0.000  0.167
     ------------------------ ATOM   93 ------------------------
     Tr[ns( 93)] =   3.00000
     eigenvalues:
       0.500  0.500  0.500
     eigenvectors (columns):
       1.000  0.000  0.000
       0.000  1.000  0.000
       0.000  0.000  1.000
     occupation matrix ns (before diag.):
       0.500  0.000  0.000
       0.000  0.500  0.000
       0.000  0.000  0.500
     ------------------------ ATOM   94 ------------------------
     Tr[ns( 94)] =   3.00000
     eigenvalues:
       0.500  0.500  0.500
     eigenvectors (columns):
       1.000  0.000  0.000
       0.000  1.000  0.000
       0.000  0.000  1.000
     occupation matrix ns (before diag.):
       0.500  0.000  0.000
       0.000  0.500  0.000
       0.000  0.000  0.500
     ------------------------ ATOM   95 ------------------------
     Tr[ns( 95)] =   3.00000
     eigenvalues:
       0.500  0.500  0.500
     eigenvectors (columns):
       1.000  0.000  0.000
       0.000  1.000  0.000
       0.000  0.000  1.000
     occupation matrix ns (before diag.):
       0.500  0.000  0.000
       0.000  0.500  0.000
       0.000  0.000  0.500
     ------------------------ ATOM   96 ------------------------
     Tr[ns( 96)] =   3.00000
     eigenvalues:
       0.500  0.500  0.500
     eigenvectors (columns):
       1.000  0.000  0.000
       0.000  1.000  0.000
       0.000  0.000  1.000
     occupation matrix ns (before diag.):
       0.500  0.000  0.000
       0.000  0.500  0.000
       0.000  0.000  0.500
     ------------------------ ATOM   97 ------------------------
     Tr[ns( 97)] =   1.00000
     eigenvalues:
       0.167  0.167  0.167
     eigenvectors (columns):
       1.000  0.000  0.000
       0.000  1.000  0.000
       0.000  0.000  1.000
     occupation matrix ns (before diag.):
       0.167  0.000  0.000
       0.000  0.167  0.000
       0.000  0.000  0.167
     ------------------------ ATOM   98 ------------------------
     Tr[ns( 98)] =   1.00000
     eigenvalues:
       0.167  0.167  0.167
     eigenvectors (columns):
       1.000  0.000  0.000
       0.000  1.000  0.000
       0.000  0.000  1.000
     occupation matrix ns (before diag.):
       0.167  0.000  0.000
       0.000  0.167  0.000
       0.000  0.000  0.167
     ------------------------ ATOM   99 ------------------------
     Tr[ns( 99)] =   1.00000
     eigenvalues:
       0.167  0.167  0.167
     eigenvectors (columns):
       1.000  0.000  0.000
       0.000  1.000  0.000
       0.000  0.000  1.000
     occupation matrix ns (before diag.):
       0.167  0.000  0.000
       0.000  0.167  0.000
       0.000  0.000  0.167
     ------------------------ ATOM  100 ------------------------
     Tr[ns(100)] =   1.00000
     eigenvalues:
       0.167  0.167  0.167
     eigenvectors (columns):
       1.000  0.000  0.000
       0.000  1.000  0.000
       0.000  0.000  1.000
     occupation matrix ns (before diag.):
       0.167  0.000  0.000
       0.000  0.167  0.000
       0.000  0.000  0.167
     ------------------------ ATOM  101 ------------------------
     Tr[ns(101)] =   3.00000
     eigenvalues:
       0.500  0.500  0.500
     eigenvectors (columns):
       1.000  0.000  0.000
       0.000  1.000  0.000
       0.000  0.000  1.000
     occupation matrix ns (before diag.):
       0.500  0.000  0.000
       0.000  0.500  0.000
       0.000  0.000  0.500
     ------------------------ ATOM  102 ------------------------
     Tr[ns(102)] =   3.00000
     eigenvalues:
       0.500  0.500  0.500
     eigenvectors (columns):
       1.000  0.000  0.000
       0.000  1.000  0.000
       0.000  0.000  1.000
     occupation matrix ns (before diag.):
       0.500  0.000  0.000
       0.000  0.500  0.000
       0.000  0.000  0.500
     ------------------------ ATOM  103 ------------------------
     Tr[ns(103)] =   3.00000
     eigenvalues:
       0.500  0.500  0.500
     eigenvectors (columns):
       1.000  0.000  0.000
       0.000  1.000  0.000
       0.000  0.000  1.000
     occupation matrix ns (before diag.):
       0.500  0.000  0.000
       0.000  0.500  0.000
       0.000  0.000  0.500
     ------------------------ ATOM  104 ------------------------
     Tr[ns(104)] =   3.00000
     eigenvalues:
       0.500  0.500  0.500
     eigenvectors (columns):
       1.000  0.000  0.000
       0.000  1.000  0.000
       0.000  0.000  1.000
     occupation matrix ns (before diag.):
       0.500  0.000  0.000
       0.000  0.500  0.000
       0.000  0.000  0.500
     ------------------------ ATOM  105 ------------------------
     Tr[ns(105)] =   1.00000
     eigenvalues:
       0.167  0.167  0.167
     eigenvectors (columns):
       1.000  0.000  0.000
       0.000  1.000  0.000
       0.000  0.000  1.000
     occupation matrix ns (before diag.):
       0.167  0.000  0.000
       0.000  0.167  0.000
       0.000  0.000  0.167
     ------------------------ ATOM  106 ------------------------
     Tr[ns(106)] =   1.00000
     eigenvalues:
       0.167  0.167  0.167
     eigenvectors (columns):
       1.000  0.000  0.000
       0.000  1.000  0.000
       0.000  0.000  1.000
     occupation matrix ns (before diag.):
       0.167  0.000  0.000
       0.000  0.167  0.000
       0.000  0.000  0.167
     ------------------------ ATOM  107 ------------------------
     Tr[ns(107)] =   1.00000
     eigenvalues:
       0.167  0.167  0.167
     eigenvectors (columns):
       1.000  0.000  0.000
       0.000  1.000  0.000
       0.000  0.000  1.000
     occupation matrix ns (before diag.):
       0.167  0.000  0.000
       0.000  0.167  0.000
       0.000  0.000  0.167
     ------------------------ ATOM  108 ------------------------
     Tr[ns(108)] =   1.00000
     eigenvalues:
       0.167  0.167  0.167
     eigenvectors (columns):
       1.000  0.000  0.000
       0.000  1.000  0.000
       0.000  0.000  1.000
     occupation matrix ns (before diag.):
       0.167  0.000  0.000
       0.000  0.167  0.000
       0.000  0.000  0.167
     ------------------------ ATOM  109 ------------------------
     Tr[ns(109)] =   3.00000
     eigenvalues:
       0.500  0.500  0.500
     eigenvectors (columns):
       1.000  0.000  0.000
       0.000  1.000  0.000
       0.000  0.000  1.000
     occupation matrix ns (before diag.):
       0.500  0.000  0.000
       0.000  0.500  0.000
       0.000  0.000  0.500
     ------------------------ ATOM  110 ------------------------
     Tr[ns(110)] =   3.00000
     eigenvalues:
       0.500  0.500  0.500
     eigenvectors (columns):
       1.000  0.000  0.000
       0.000  1.000  0.000
       0.000  0.000  1.000
     occupation matrix ns (before diag.):
       0.500  0.000  0.000
       0.000  0.500  0.000
       0.000  0.000  0.500
     ------------------------ ATOM  111 ------------------------
     Tr[ns(111)] =   3.00000
     eigenvalues:
       0.500  0.500  0.500
     eigenvectors (columns):
       1.000  0.000  0.000
       0.000  1.000  0.000
       0.000  0.000  1.000
     occupation matrix ns (before diag.):
       0.500  0.000  0.000
       0.000  0.500  0.000
       0.000  0.000  0.500
     ------------------------ ATOM  112 ------------------------
     Tr[ns(112)] =   3.00000
     eigenvalues:
       0.500  0.500  0.500
     eigenvectors (columns):
       1.000  0.000  0.000
       0.000  1.000  0.000
       0.000  0.000  1.000
     occupation matrix ns (before diag.):
       0.500  0.000  0.000
       0.000  0.500  0.000
       0.000  0.000  0.500
     ------------------------ ATOM  113 ------------------------
     Tr[ns(113)] =   1.00000
     eigenvalues:
       0.167  0.167  0.167
     eigenvectors (columns):
       1.000  0.000  0.000
       0.000  1.000  0.000
       0.000  0.000  1.000
     occupation matrix ns (before diag.):
       0.167  0.000  0.000
       0.000  0.167  0.000
       0.000  0.000  0.167
     ------------------------ ATOM  114 ------------------------
     Tr[ns(114)] =   1.00000
     eigenvalues:
       0.167  0.167  0.167
     eigenvectors (columns):
       1.000  0.000  0.000
       0.000  1.000  0.000
       0.000  0.000  1.000
     occupation matrix ns (before diag.):
       0.167  0.000  0.000
       0.000  0.167  0.000
       0.000  0.000  0.167
     ------------------------ ATOM  115 ------------------------
     Tr[ns(115)] =   1.00000
     eigenvalues:
       0.167  0.167  0.167
     eigenvectors (columns):
       1.000  0.000  0.000
       0.000  1.000  0.000
       0.000  0.000  1.000
     occupation matrix ns (before diag.):
       0.167  0.000  0.000
       0.000  0.167  0.000
       0.000  0.000  0.167
     ------------------------ ATOM  116 ------------------------
     Tr[ns(116)] =   1.00000
     eigenvalues:
       0.167  0.167  0.167
     eigenvectors (columns):
       1.000  0.000  0.000
       0.000  1.000  0.000
       0.000  0.000  1.000
     occupation matrix ns (before diag.):
       0.167  0.000  0.000
       0.000  0.167  0.000
       0.000  0.000  0.167
     ------------------------ ATOM  117 ------------------------
     Tr[ns(117)] =   3.00000
     eigenvalues:
       0.500  0.500  0.500
     eigenvectors (columns):
       1.000  0.000  0.000
       0.000  1.000  0.000
       0.000  0.000  1.000
     occupation matrix ns (before diag.):
       0.500  0.000  0.000
       0.000  0.500  0.000
       0.000  0.000  0.500
     ------------------------ ATOM  118 ------------------------
     Tr[ns(118)] =   3.00000
     eigenvalues:
       0.500  0.500  0.500
     eigenvectors (columns):
       1.000  0.000  0.000
       0.000  1.000  0.000
       0.000  0.000  1.000
     occupation matrix ns (before diag.):
       0.500  0.000  0.000
       0.000  0.500  0.000
       0.000  0.000  0.500
     ------------------------ ATOM  119 ------------------------
     Tr[ns(119)] =   3.00000
     eigenvalues:
       0.500  0.500  0.500
     eigenvectors (columns):
       1.000  0.000  0.000
       0.000  1.000  0.000
       0.000  0.000  1.000
     occupation matrix ns (before diag.):
       0.500  0.000  0.000
       0.000  0.500  0.000
       0.000  0.000  0.500
     ------------------------ ATOM  120 ------------------------
     Tr[ns(120)] =   3.00000
     eigenvalues:
       0.500  0.500  0.500
     eigenvectors (columns):
       1.000  0.000  0.000
       0.000  1.000  0.000
       0.000  0.000  1.000
     occupation matrix ns (before diag.):
       0.500  0.000  0.000
       0.000  0.500  0.000
       0.000  0.000  0.500
     ------------------------ ATOM  121 ------------------------
     Tr[ns(121)] =   1.00000
     eigenvalues:
       0.167  0.167  0.167
     eigenvectors (columns):
       1.000  0.000  0.000
       0.000  1.000  0.000
       0.000  0.000  1.000
     occupation matrix ns (before diag.):
       0.167  0.000  0.000
       0.000  0.167  0.000
       0.000  0.000  0.167
     ------------------------ ATOM  122 ------------------------
     Tr[ns(122)] =   1.00000
     eigenvalues:
       0.167  0.167  0.167
     eigenvectors (columns):
       1.000  0.000  0.000
       0.000  1.000  0.000
       0.000  0.000  1.000
     occupation matrix ns (before diag.):
       0.167  0.000  0.000
       0.000  0.167  0.000
       0.000  0.000  0.167
     ------------------------ ATOM  123 ------------------------
     Tr[ns(123)] =   1.00000
     eigenvalues:
       0.167  0.167  0.167
     eigenvectors (columns):
       1.000  0.000  0.000
       0.000  1.000  0.000
       0.000  0.000  1.000
     occupation matrix ns (before diag.):
       0.167  0.000  0.000
       0.000  0.167  0.000
       0.000  0.000  0.167
     ------------------------ ATOM  124 ------------------------
     Tr[ns(124)] =   1.00000
     eigenvalues:
       0.167  0.167  0.167
     eigenvectors (columns):
       1.000  0.000  0.000
       0.000  1.000  0.000
       0.000  0.000  1.000
     occupation matrix ns (before diag.):
       0.167  0.000  0.000
       0.000  0.167  0.000
       0.000  0.000  0.167
     ------------------------ ATOM  125 ------------------------
     Tr[ns(125)] =   3.00000
     eigenvalues:
       0.500  0.500  0.500
     eigenvectors (columns):
       1.000  0.000  0.000
       0.000  1.000  0.000
       0.000  0.000  1.000
     occupation matrix ns (before diag.):
       0.500  0.000  0.000
       0.000  0.500  0.000
       0.000  0.000  0.500
     ------------------------ ATOM  126 ------------------------
     Tr[ns(126)] =   3.00000
     eigenvalues:
       0.500  0.500  0.500
     eigenvectors (columns):
       1.000  0.000  0.000
       0.000  1.000  0.000
       0.000  0.000  1.000
     occupation matrix ns (before diag.):
       0.500  0.000  0.000
       0.000  0.500  0.000
       0.000  0.000  0.500
     ------------------------ ATOM  127 ------------------------
     Tr[ns(127)] =   3.00000
     eigenvalues:
       0.500  0.500  0.500
     eigenvectors (columns):
       1.000  0.000  0.000
       0.000  1.000  0.000
       0.000  0.000  1.000
     occupation matrix ns (before diag.):
       0.500  0.000  0.000
       0.000  0.500  0.000
       0.000  0.000  0.500
     ------------------------ ATOM  128 ------------------------
     Tr[ns(128)] =   3.00000
     eigenvalues:
       0.500  0.500  0.500
     eigenvectors (columns):
       1.000  0.000  0.000
       0.000  1.000  0.000
       0.000  0.000  1.000
     occupation matrix ns (before diag.):
       0.500  0.000  0.000
       0.000  0.500  0.000
       0.000  0.000  0.500
     ------------------------ ATOM  129 ------------------------
     Tr[ns(129)] =   1.00000
     eigenvalues:
       0.167  0.167  0.167
     eigenvectors (columns):
       1.000  0.000  0.000
       0.000  1.000  0.000
       0.000  0.000  1.000
     occupation matrix ns (before diag.):
       0.167  0.000  0.000
       0.000  0.167  0.000
       0.000  0.000  0.167
     ------------------------ ATOM  130 ------------------------
     Tr[ns(130)] =   1.00000
     eigenvalues:
       0.167  0.167  0.167
     eigenvectors (columns):
       1.000  0.000  0.000
       0.000  1.000  0.000
       0.000  0.000  1.000
     occupation matrix ns (before diag.):
       0.167  0.000  0.000
       0.000  0.167  0.000
       0.000  0.000  0.167
     ------------------------ ATOM  131 ------------------------
     Tr[ns(131)] =   1.00000
     eigenvalues:
       0.167  0.167  0.167
     eigenvectors (columns):
       1.000  0.000  0.000
       0.000  1.000  0.000
       0.000  0.000  1.000
     occupation matrix ns (before diag.):
       0.167  0.000  0.000
       0.000  0.167  0.000
       0.000  0.000  0.167
     ------------------------ ATOM  132 ------------------------
     Tr[ns(132)] =   1.00000
     eigenvalues:
       0.167  0.167  0.167
     eigenvectors (columns):
       1.000  0.000  0.000
       0.000  1.000  0.000
       0.000  0.000  1.000
     occupation matrix ns (before diag.):
       0.167  0.000  0.000
       0.000  0.167  0.000
       0.000  0.000  0.167
     ------------------------ ATOM  133 ------------------------
     Tr[ns(133)] =   3.00000
     eigenvalues:
       0.500  0.500  0.500
     eigenvectors (columns):
       1.000  0.000  0.000
       0.000  1.000  0.000
       0.000  0.000  1.000
     occupation matrix ns (before diag.):
       0.500  0.000  0.000
       0.000  0.500  0.000
       0.000  0.000  0.500
     ------------------------ ATOM  134 ------------------------
     Tr[ns(134)] =   3.00000
     eigenvalues:
       0.500  0.500  0.500
     eigenvectors (columns):
       1.000  0.000  0.000
       0.000  1.000  0.000
       0.000  0.000  1.000
     occupation matrix ns (before diag.):
       0.500  0.000  0.000
       0.000  0.500  0.000
       0.000  0.000  0.500
     ------------------------ ATOM  135 ------------------------
     Tr[ns(135)] =   3.00000
     eigenvalues:
       0.500  0.500  0.500
     eigenvectors (columns):
       1.000  0.000  0.000
       0.000  1.000  0.000
       0.000  0.000  1.000
     occupation matrix ns (before diag.):
       0.500  0.000  0.000
       0.000  0.500  0.000
       0.000  0.000  0.500
     ------------------------ ATOM  136 ------------------------
     Tr[ns(136)] =   3.00000
     eigenvalues:
       0.500  0.500  0.500
     eigenvectors (columns):
       1.000  0.000  0.000
       0.000  1.000  0.000
       0.000  0.000  1.000
     occupation matrix ns (before diag.):
       0.500  0.000  0.000
       0.000  0.500  0.000
       0.000  0.000  0.500
     ------------------------ ATOM  137 ------------------------
     Tr[ns(137)] =   1.00000
     eigenvalues:
       0.167  0.167  0.167
     eigenvectors (columns):
       1.000  0.000  0.000
       0.000  1.000  0.000
       0.000  0.000  1.000
     occupation matrix ns (before diag.):
       0.167  0.000  0.000
       0.000  0.167  0.000
       0.000  0.000  0.167
     ------------------------ ATOM  138 ------------------------
     Tr[ns(138)] =   1.00000
     eigenvalues:
       0.167  0.167  0.167
     eigenvectors (columns):
       1.000  0.000  0.000
       0.000  1.000  0.000
       0.000  0.000  1.000
     occupation matrix ns (before diag.):
       0.167  0.000  0.000
       0.000  0.167  0.000
       0.000  0.000  0.167
     ------------------------ ATOM  139 ------------------------
     Tr[ns(139)] =   1.00000
     eigenvalues:
       0.167  0.167  0.167
     eigenvectors (columns):
       1.000  0.000  0.000
       0.000  1.000  0.000
       0.000  0.000  1.000
     occupation matrix ns (before diag.):
       0.167  0.000  0.000
       0.000  0.167  0.000
       0.000  0.000  0.167
     ------------------------ ATOM  140 ------------------------
     Tr[ns(140)] =   1.00000
     eigenvalues:
       0.167  0.167  0.167
     eigenvectors (columns):
       1.000  0.000  0.000
       0.000  1.000  0.000
       0.000  0.000  1.000
     occupation matrix ns (before diag.):
       0.167  0.000  0.000
       0.000  0.167  0.000
       0.000  0.000  0.167
     ------------------------ ATOM  141 ------------------------
     Tr[ns(141)] =   3.00000
     eigenvalues:
       0.500  0.500  0.500
     eigenvectors (columns):
       1.000  0.000  0.000
       0.000  1.000  0.000
       0.000  0.000  1.000
     occupation matrix ns (before diag.):
       0.500  0.000  0.000
       0.000  0.500  0.000
       0.000  0.000  0.500
     ------------------------ ATOM  142 ------------------------
     Tr[ns(142)] =   3.00000
     eigenvalues:
       0.500  0.500  0.500
     eigenvectors (columns):
       1.000  0.000  0.000
       0.000  1.000  0.000
       0.000  0.000  1.000
     occupation matrix ns (before diag.):
       0.500  0.000  0.000
       0.000  0.500  0.000
       0.000  0.000  0.500
     ------------------------ ATOM  143 ------------------------
     Tr[ns(143)] =   3.00000
     eigenvalues:
       0.500  0.500  0.500
     eigenvectors (columns):
       1.000  0.000  0.000
       0.000  1.000  0.000
       0.000  0.000  1.000
     occupation matrix ns (before diag.):
       0.500  0.000  0.000
       0.000  0.500  0.000
       0.000  0.000  0.500
     ------------------------ ATOM  144 ------------------------
     Tr[ns(144)] =   3.00000
     eigenvalues:
       0.500  0.500  0.500
     eigenvectors (columns):
       1.000  0.000  0.000
       0.000  1.000  0.000
       0.000  0.000  1.000
     occupation matrix ns (before diag.):
       0.500  0.000  0.000
       0.000  0.500  0.000
       0.000  0.000  0.500
     ------------------------ ATOM  145 ------------------------
     Tr[ns(145)] =   1.00000
     eigenvalues:
       0.167  0.167  0.167
     eigenvectors (columns):
       1.000  0.000  0.000
       0.000  1.000  0.000
       0.000  0.000  1.000
     occupation matrix ns (before diag.):
       0.167  0.000  0.000
       0.000  0.167  0.000
       0.000  0.000  0.167
     ------------------------ ATOM  146 ------------------------
     Tr[ns(146)] =   1.00000
     eigenvalues:
       0.167  0.167  0.167
     eigenvectors (columns):
       1.000  0.000  0.000
       0.000  1.000  0.000
       0.000  0.000  1.000
     occupation matrix ns (before diag.):
       0.167  0.000  0.000
       0.000  0.167  0.000
       0.000  0.000  0.167
     ------------------------ ATOM  147 ------------------------
     Tr[ns(147)] =   1.00000
     eigenvalues:
       0.167  0.167  0.167
     eigenvectors (columns):
       1.000  0.000  0.000
       0.000  1.000  0.000
       0.000  0.000  1.000
     occupation matrix ns (before diag.):
       0.167  0.000  0.000
       0.000  0.167  0.000
       0.000  0.000  0.167
     ------------------------ ATOM  148 ------------------------
     Tr[ns(148)] =   1.00000
     eigenvalues:
       0.167  0.167  0.167
     eigenvectors (columns):
       1.000  0.000  0.000
       0.000  1.000  0.000
       0.000  0.000  1.000
     occupation matrix ns (before diag.):
       0.167  0.000  0.000
       0.000  0.167  0.000
       0.000  0.000  0.167
     ------------------------ ATOM  149 ------------------------
     Tr[ns(149)] =   3.00000
     eigenvalues:
       0.500  0.500  0.500
     eigenvectors (columns):
       1.000  0.000  0.000
       0.000  1.000  0.000
       0.000  0.000  1.000
     occupation matrix ns (before diag.):
       0.500  0.000  0.000
       0.000  0.500  0.000
       0.000  0.000  0.500
     ------------------------ ATOM  150 ------------------------
     Tr[ns(150)] =   3.00000
     eigenvalues:
       0.500  0.500  0.500
     eigenvectors (columns):
       1.000  0.000  0.000
       0.000  1.000  0.000
       0.000  0.000  1.000
     occupation matrix ns (before diag.):
       0.500  0.000  0.000
       0.000  0.500  0.000
       0.000  0.000  0.500
     ------------------------ ATOM  151 ------------------------
     Tr[ns(151)] =   3.00000
     eigenvalues:
       0.500  0.500  0.500
     eigenvectors (columns):
       1.000  0.000  0.000
       0.000  1.000  0.000
       0.000  0.000  1.000
     occupation matrix ns (before diag.):
       0.500  0.000  0.000
       0.000  0.500  0.000
       0.000  0.000  0.500
     ------------------------ ATOM  152 ------------------------
[...]
   -19.5241 -19.5236 -19.5236 -19.5235 -19.5235 -19.5233 -19.5227 -19.5221
   -19.5219 -19.5218 -19.5217 -19.5215 -19.5214 -19.5212 -19.5202 -19.5199
   -19.5196 -19.5191 -19.5189 -19.5186 -19.5185 -19.5183 -19.5183 -19.5180
   -19.5177 -19.5175 -19.5172 -19.5170 -19.5169 -19.5169 -19.5169 -19.5168
   -19.5167 -19.5164 -19.5161 -19.5159 -19.5154 -19.5153 -19.5152 -19.5148
   -19.5147 -19.5146 -19.5142 -19.5139 -19.5138 -19.5137 -19.5136 -19.5133
   -19.5131 -19.5127 -19.5127 -19.5125 -19.5124 -19.5122 -19.5122 -19.5121
   -19.5120 -19.5119 -19.5118 -19.5116 -19.5116 -19.5115 -19.5114 -19.5114
   -19.5113 -19.5112 -19.5110 -19.5109 -19.5106 -19.5102 -19.5101 -19.5099
   -19.5097 -19.5096 -19.5095 -19.5093 -19.5092 -19.5088 -19.5088 -19.5086
   -19.5082 -19.5080 -19.5079 -19.5078 -19.5077 -19.5075 -19.5069 -19.5066
   -19.5063 -19.5062 -19.5061 -19.5059 -19.5057 -19.5054 -19.5054 -19.5051
   -19.5049 -19.5047 -19.5044 -19.5043 -19.5043 -19.5042 -19.5041 -19.5037
   -19.5034 -19.5033 -19.5032 -19.5030 -19.5030 -19.5028 -19.5026 -19.5022
   -19.5021 -19.5020 -19.5020 -19.5019 -19.5018 -19.5015 -19.5014 -19.5013
   -19.5007 -19.5005 -19.5003 -19.5003 -19.5001 -19.4998 -19.4994 -19.4993
   -19.4990 -19.4989 -19.4982 -19.4981 -19.4980 -19.4979 -19.4979 -19.4976
   -19.4970 -19.4968 -19.4967 -19.4963 -19.4962 -19.4957 -19.4951 -19.4950
   -19.4948 -19.4945 -19.4939 -19.4936 -19.4931 -19.4928 -19.4918 -19.4914
   -19.4913 -19.4910 -19.4908 -19.4907 -19.4906 -19.4905 -19.4904 -19.4903
   -19.4902 -19.4895 -19.4893 -19.4891 -19.4885 -19.4878 -19.4877 -19.4876
   -19.4871 -19.4868 -19.4867 -19.4865 -19.4859 -19.4851 -19.4846 -19.4844
   -19.4842 -19.4839 -19.4834 -19.4828 -19.4816 -19.4810 -19.4809 -19.4808
   -19.4803 -19.4800 -19.4793 -19.4788 -19.4786 -19.4781 -19.4777 -19.4772
   -19.4768 -19.4760 -19.4745 -19.4733 -19.4732 -19.4723 -19.4711 -19.4702
   -19.4645 -19.4644 -19.4619 -19.4555  -7.3645  -7.3570  -7.3473  -7.3464
    -7.3450  -7.3441  -7.3375  -7.3329  -7.3316  -7.3254  -7.3178  -7.3175
    -7.3165  -7.3151  -7.3126  -7.3085  -7.3077  -7.3061  -7.3028  -7.3021
    -7.3003  -7.2992  -7.2979  -7.2969  -7.2954  -7.2935  -7.2933  -7.2921
    -7.2921  -7.2916  -7.2906  -7.2898  -7.2892  -7.2888  -7.2878  -7.2871
    -7.2865  -7.2858  -7.2854  -7.2850  -7.2844  -7.2836  -7.2815  -7.2813
    -7.2802  -7.2780  -7.2772  -7.2770  -7.2763  -7.2751  -7.2741  -7.2741
    -7.2736  -7.2733  -7.2728  -7.2709  -7.2704  -7.2700  -7.2698  -7.2692
    -7.2680  -7.2673  -7.2667  -7.2647  -7.2644  -7.2639  -7.2629  -7.2623
    -7.2615  -7.2608  -7.2603  -7.2602  -7.2597  -7.2594  -7.2587  -7.2576
    -7.2575  -7.2561  -7.2558  -7.2550  -7.2546  -7.2534  -7.2528  -7.2521
    -7.2517  -7.2499  -7.2492  -7.2490  -7.2479  -7.2471  -7.2461  -7.2453
    -7.2450  -7.2448  -7.2442  -7.2434  -7.2430  -7.2419  -7.2415  -7.2407
    -7.2403  -7.2390  -7.2388  -7.2377  -7.2370  -7.2367  -7.2364  -7.2353
    -7.2349  -7.2348  -7.2343  -7.2332  -7.2328  -7.2322  -7.2321  -7.2318
    -7.2312  -7.2310  -7.2303  -7.2293  -7.2289  -7.2282  -7.2282  -7.2278
    -7.2271  -7.2264  -7.2259  -7.2249  -7.2246  -7.2243  -7.2238  -7.2235
    -7.2235  -7.2230  -7.2228  -7.2223  -7.2218  -7.2214  -7.2213  -7.2210
    -7.2207  -7.2201  -7.2191  -7.2186  -7.2182  -7.2181  -7.2179  -7.2169
    -7.2165  -7.2162  -7.2156  -7.2154  -7.2154  -7.2145  -7.2143  -7.2140
    -7.2137  -7.2135  -7.2132  -7.2127  -7.2122  -7.2118  -7.2114  -7.2110
    -7.2105  -7.2102  -7.2096  -7.2096  -7.2092  -7.2084  -7.2073  -7.2072
    -7.2069  -7.2062  -7.2057  -7.2053  -7.2050  -7.2045  -7.2043  -7.2032
    -7.2031  -7.2026  -7.2020  -7.2017  -7.2014  -7.2013  -7.2006  -7.2000
    -7.1993  -7.1990  -7.1987  -7.1983  -7.1978  -7.1970  -7.1969  -7.1962
    -7.1957  -7.1954  -7.1953  -7.1948  -7.1945  -7.1942  -7.1938  -7.1931
    -7.1930  -7.1924  -7.1918  -7.1915  -7.1907  -7.1903  -7.1901  -7.1895
    -7.1891  -7.1890  -7.1885  -7.1881  -7.1879  -7.1877  -7.1868  -7.1865
    -7.1862  -7.1861  -7.1857  -7.1852  -7.1848  -7.1845  -7.1838  -7.1835
    -7.1830  -7.1823  -7.1821  -7.1818  -7.1816  -7.1811  -7.1808  -7.1806
    -7.1802  -7.1800  -7.1794  -7.1793  -7.1792  -7.1791  -7.1786  -7.1783
    -7.1781  -7.1779  -7.1772  -7.1765  -7.1763  -7.1761  -7.1753  -7.1747
    -7.1744  -7.1740  -7.1737  -7.1733  -7.1729  -7.1727  -7.1724  -7.1719
    -7.1714  -7.1712  -7.1709  -7.1706  -7.1703  -7.1701  -7.1698  -7.1695
    -7.1693  -7.1690  -7.1688  -7.1684  -7.1682  -7.1676  -7.1673  -7.1669
    -7.1667  -7.1666  -7.1661  -7.1658  -7.1648  -7.1645  -7.1643  -7.1641
    -7.1639  -7.1636  -7.1634  -7.1630  -7.1629  -7.1628  -7.1619  -7.1618
    -7.1614  -7.1610  -7.1608  -7.1603  -7.1600  -7.1596  -7.1592  -7.1589
    -7.1585  -7.1582  -7.1579  -7.1576  -7.1573  -7.1570  -7.1567  -7.1565
    -7.1563  -7.1551  -7.1545  -7.1542  -7.1539  -7.1535  -7.1534  -7.1530
    -7.1529  -7.1524  -7.1520  -7.1511  -7.1508  -7.1506  -7.1504  -7.1497
    -7.1496  -7.1488  -7.1484  -7.1483  -7.1480  -7.1475  -7.1472  -7.1467
    -7.1465  -7.1460  -7.1458  -7.1446  -7.1442  -7.1440  -7.1437  -7.1433
    -7.1431  -7.1430  -7.1422  -7.1419  -7.1417  -7.1413  -7.1409  -7.1406
    -7.1402  -7.1401  -7.1398  -7.1396  -7.1395  -7.1392  -7.1390  -7.1386
    -7.1382  -7.1374  -7.1368  -7.1367  -7.1362  -7.1361  -7.1353  -7.1350
    -7.1346  -7.1343  -7.1333  -7.1330  -7.1328  -7.1327  -7.1324  -7.1320
    -7.1313  -7.1310  -7.1307  -7.1304  -7.1301  -7.1298  -7.1296  -7.1289
    -7.1286  -7.1279  -7.1278  -7.1271  -7.1269  -7.1266  -7.1265  -7.1261
    -7.1258  -7.1253  -7.1247  -7.1246  -7.1240  -7.1239  -7.1237  -7.1235
    -7.1229  -7.1228  -7.1227  -7.1222  -7.1218  -7.1214  -7.1211  -7.1206
    -7.1203  -7.1201  -7.1198  -7.1194  -7.1187  -7.1183  -7.1175  -7.1170
    -7.1167  -7.1163  -7.1161  -7.1157  -7.1154  -7.1149  -7.1147  -7.1140
    -7.1132  -7.1126  -7.1125  -7.1120  -7.1118  -7.1110  -7.1103  -7.1094
    -7.1089  -7.1083  -7.1081  -7.1076  -7.1071  -7.1063  -7.1056  -7.1052
    -7.1051  -7.1048  -7.1045  -7.1043  -7.1036  -7.1031  -7.1023  -7.1018
    -7.1013  -7.1009  -7.0996  -7.0993  -7.0989  -7.0981  -7.0974  -7.0969
    -7.0965  -7.0961  -7.0955  -7.0946  -7.0936  -7.0933  -7.0929  -7.0915
    -7.0912  -7.0909  -7.0905  -7.0900  -7.0899  -7.0896  -7.0887  -7.0879
    -7.0867  -7.0863  -7.0854  -7.0852  -7.0841  -7.0838  -7.0834  -7.0822
    -7.0818  -7.0803  -7.0795  -7.0787  -7.0784  -7.0780  -7.0774  -7.0748
    -7.0730  -7.0727  -7.0709  -7.0706  -7.0702  -7.0697  -7.0694  -7.0673
    -7.0670  -7.0664  -7.0662  -7.0659  -7.0630  -7.0623  -7.0609  -7.0599
    -7.0596  -7.0575  -7.0555  -7.0552  -7.0544  -7.0536  -7.0508  -7.0480
    -7.0466  -7.0402  -7.0396  -7.0395  -7.0380  -7.0375  -7.0347  -7.0344
    -7.0326  -7.0317  -7.0316  -7.0293  -7.0293  -7.0290  -7.0257  -7.0244
    -7.0232  -7.0169  -7.0142  -7.0085  -7.0064  -6.9982  -6.9940  -6.9939
    -6.9916  -6.9910  -6.9899  -6.9880  -6.9872  -6.9837  -6.9486  -6.9441
    -3.5594  -3.5341  -3.4863  -3.4496  -3.3790  -3.3216  -3.2722  -3.2509
    -3.2119  -3.1858  -3.1245  -3.0784  -3.0696  -3.0452  -2.9931  -2.9474
    -2.9205  -2.8934  -2.8353  -2.8332  -2.8222  -2.7906  -2.7845  -2.7624
    -2.7217  -2.7086  -2.6909  -2.6701  -2.6504  -2.5945  -2.5649  -2.5390
    -2.5124  -2.5001  -2.4758  -2.4461  -2.4172  -2.4109  -2.3776  -2.3451
    -2.3323  -2.2942  -2.2611  -2.2563  -2.2480  -2.2157  -2.1715  -2.1474
    -2.1273  -2.1066  -2.0939  -2.0708  -2.0353  -2.0127  -1.9702  -1.9667
    -1.9181  -1.8898  -1.8546  -1.8381  -1.8110  -1.7776  -1.7576  -1.7413
    -1.7191  -1.6742  -1.6487  -1.6346  -1.6256  -1.6148  -1.5993  -1.5558
    -1.5440  -1.5286  -1.5169  -1.4974  -1.4517  -1.4250  -1.3934  -1.3713
    -1.3653  -1.3408  -1.3082  -1.2940  -1.2846  -1.2688  -1.2536  -1.2211
    -1.2168  -1.1685  -1.1261  -1.1114  -1.1040  -1.0837  -1.0762  -1.0437
    -1.0037  -0.9917  -0.9304  -0.8846  -0.8703  -0.8405  -0.8319  -0.7971
    -0.7878  -0.7810  -0.7056  -0.6587  -0.3615  -0.3550  -0.2401  -0.1736
     0.0475   0.0644   0.0714   0.0834   0.0964   0.1179   0.1451   0.1573
     0.1692   0.1728   0.1968   0.2196   0.2391   0.2424   0.2495   0.2790
     0.2985   0.3108   0.3263   0.3309   0.3450   0.3717   0.3901   0.3980
     0.4187   0.4263   0.4390   0.4637   0.4908   0.5081   0.5454   0.5492
     0.5846   0.5933   0.6492   0.6702   0.7070   0.7167   0.7481   0.7770
     0.7860   0.8115   0.8339   0.8449   0.8641   0.9091   0.9194   0.9299
     0.9403   0.9609   0.9846   1.0097   1.0221   1.0320   1.0549   1.0660
     1.3712   1.4163   1.4693   1.4826   1.5171   1.5385   1.5914   1.6553
     1.6655   1.6745   1.7246   1.7409   1.7763   1.7963   1.8050   1.8538
     1.8832   1.9107   1.9411   1.9682   2.0043   2.0212   2.0354   2.0454
     2.0508   2.0934   2.1120   2.1281   2.8298   2.8833   2.9081   2.9523
     2.9578   2.9702   3.0099   3.0201   3.0346   3.0620   3.0855   3.1074
     3.1262   3.1780   3.1879   3.2279   3.2914   3.3411   3.3496   3.3635
     3.3763   3.3921   3.4015   3.4276   3.4396   3.4564   3.4694   3.4795
     3.4917   3.5082   3.5218   3.5328   3.5477   3.5786   3.5896   3.5994
     3.6262   3.6304   3.6428   3.6531   3.6796   3.6841   3.6967   3.7054
     3.7301   3.7375   3.7531   3.7824   3.7909   3.8079   3.8153   3.8258
     3.8375   3.8559   3.8676   3.8704   3.8861   3.9007   3.9427   3.9480
     3.9690   3.9930   4.0048   4.0143   4.1776   4.2124   4.2765   4.2895
     4.3048   4.3581   4.3724   4.3785   4.4011   4.4187   4.4323   4.4501
     4.4557   4.4703   4.4792   4.4914   4.5073   4.5189   4.5338   4.5446
     4.5620   4.5792   4.5915   4.6017   4.6103   4.6545   4.6597   4.6919
     4.6967   4.7123   4.7251   4.7718   4.7768   4.8031   4.8057   4.8315
     4.8342   4.8528   4.8615   4.8816   4.8859   4.8961   4.9047   4.9145
     4.9391   4.9444   4.9579   4.9769   4.9847   5.0001   5.0225   5.0439
     5.0534   5.0581   5.0785   5.1044   5.1121   5.1301   5.1331   5.1450
     5.1616   5.1673   5.1895   5.2006   5.2051   5.2208   5.2491   5.2687
     5.2732   5.2912   5.3090   5.3222   5.3279   5.3418   5.3539   5.3670
     5.3822   5.4033   5.4104   5.4268   5.4425   5.4499   5.4615   5.4869
     5.5015   5.5254   5.5365   5.5639   5.5701   5.5824   5.6020   5.6064
     5.6336   5.6490   5.6712   5.6802   5.6949   5.7014   5.7184   5.7406
     5.7447   5.7568   5.7722   5.8037   5.8078   5.8157   5.8305   5.8540
     5.8755   5.8991   5.9121   5.9395   5.9482   5.9995   6.0205   6.0372
     6.0563   6.0740   6.1047   6.1155   6.1377   6.1550   6.1914   6.2117
     6.2325   6.2459   6.2688   6.2923   6.2956   6.3274   6.3352   6.3383
     6.3431   6.3565   6.3674   6.3755   6.4129   6.4197   6.4254   6.4375
     6.4861   6.4935   6.5217   6.5305   6.5549   6.5625   6.5714   6.6020
     6.6155   6.6329   6.6615   6.7018   6.7054   6.7466   6.7484   6.7689
     6.7948   6.8037   6.8312   6.8422   6.8794   6.8933   6.9021   6.9200
     6.9610   6.9781   7.0669   7.1139   7.4083   7.4863   7.5794   7.6172
     9.3836   9.4130   9.4476   9.4630   9.4876   9.5106   9.5413   9.5533
     9.6127   9.6467   9.6584   9.6732   9.7070   9.7247   9.7371   9.7438
     9.7679   9.7857   9.7926   9.7987   9.8102   9.8298   9.8373   9.8599
     9.8820   9.8894   9.9045   9.9140   9.9273   9.9494   9.9620   9.9972
    10.0257  10.0315  10.0503  10.0635  10.0733  10.0926  10.1024  10.1172
    10.1317  10.1607  10.1755  10.1793  10.1945  10.2017  10.2329  10.2430
    10.2439  10.2507  10.2635  10.2697  10.2764  10.2966  10.3033  10.3095
    10.3199  10.3296  10.3455  10.3545  10.3722  10.3794  10.3876  10.3931
    10.4395  10.4615  10.4661  10.4855  10.4908  10.5015  10.5087  10.5204
    10.5234  10.5349  10.5439  10.5490  10.5686  10.5719  10.5871  10.5929
    10.5993  10.6151  10.6182  10.6303  10.6633  10.6902  10.7015  10.7164
    10.7323  10.7455  10.7539  10.7648  10.7755  10.7818  10.7894  10.8077
    10.8132  10.8274  10.8333  10.8568  10.8650  10.8678  10.8935  10.9033
    10.9046  10.9511  10.9887  11.0159  11.2749  11.2857  11.3357  11.3523
    11.4549  11.4939  11.5092  11.5202  11.5509  11.5795  11.5855  11.5990
    11.6216  11.6381  11.6458  11.6580  11.6857  11.6930  11.6952  11.7204
    11.7356  11.7366  11.7569  11.7821  11.8023  11.8075  11.8226  11.8323
    11.8391  11.8529  11.8629  11.8824  11.8856  11.9068  11.9079  11.9208
    11.9283  11.9344  11.9372  11.9490  11.9560  11.9754  11.9914  12.0241
    12.1552  12.1679  12.1771  12.1896  12.2040  12.2088  12.2241  12.2296
    12.2431  12.2476  12.2591  12.2712  12.2914  12.3058  12.3168  12.3208
    12.3659  12.3973  12.4229  12.4416  12.4471  12.4575  12.4614  12.4756
    12.4836  12.4915  12.4987  12.5090  12.5199  12.5274  12.5324  12.5377
    12.5540  12.5602  12.5679  12.5764  12.5886  12.5943  12.5981  12.6054
    12.6132  12.6233  12.6298  12.6417  12.6543  12.6621  12.6730  12.6791
    12.6842  12.6992  12.7113  12.7243  12.7330  12.7416  12.7506  12.7593
    12.7674  12.7738  12.7780  12.7993  12.8023  12.8061  12.8291  12.8329
    12.8405  12.8456  12.8729  12.8870  12.9277  12.9522  12.9535  12.9869
    12.9934  13.0056  13.0220  13.0458  13.1294  13.1507  13.1610  13.1666
    13.1897  13.1927  13.2107  13.2201  13.2348  13.2564  13.2733  13.2838
    13.2927  13.2998  13.3005  13.3162  13.3231  13.3369  13.3627  13.3666
    13.3743  13.3870  13.3992  13.4046  13.4157  13.4284  13.4320  13.4365
    13.4475  13.4608  13.4643  13.4739  13.4888  13.5069  13.5170  13.5289
    13.5369  13.5417  13.5560  13.5620  13.5810  13.5919  13.6025  13.6194
    13.6306  13.6416  13.6495  13.6718  13.6788  13.6824  13.6904  13.7053
    13.7291  13.7456  13.7653  13.7898  13.8521  13.8797  13.8906  13.9045
    13.9160  13.9440  13.9466  13.9528  13.9543  13.9689  13.9768  13.9843
    13.9889  14.0041  14.0189  14.0237  14.0300  14.0486  14.0517  14.0624
    14.0656  14.0781  14.0847  14.0878  14.1002  14.1136  14.1236  14.1251
    14.1470  14.1514  14.1650  14.1662  14.1777  14.1828  14.1952  14.2032
    14.2119  14.2244  14.2301  14.2346  14.2478  14.2589  14.2687  14.2759
    14.2844  14.2894  14.3029  14.3057  14.3251  14.3313  14.3420  14.3455
    14.3559  14.3767  14.3839  14.3881  14.4034  14.4085  14.4225  14.4261
    14.4308  14.4509  14.4569  14.4653  14.4881  14.5009  14.5210  14.5322
    14.6572  14.6641  14.7324  14.7529  14.7672  14.7834  14.8000  14.8191
    14.9165  14.9370  14.9737  14.9785  15.0173  15.0438  15.0777  15.0998
    15.1736  15.1941  15.2034  15.2284  15.2402  15.2583  15.2744  15.2891
    15.3063  15.3139  15.3159  15.3279  15.3333  15.3661  15.3746  15.4094
    15.5198  15.5791  15.5952  15.6063  15.6194  15.6371  15.6538  15.6663
    15.6715  15.6847  15.6937  15.7004  15.7076  15.7122  15.7164  15.7340
    15.7426  15.7501  15.7620  15.7708  15.7810  15.7926  15.7988  15.8285
    15.8540  15.8617  15.8808  15.8837  15.9024  15.9115  15.9226  15.9349
    15.9429  15.9671  15.9881  16.0002  16.0044  16.0179  16.0203  16.0491
    16.0614  16.0994  16.1021  16.1404  16.1525  16.1600  16.1999  16.2059
    16.2219  16.2264  16.2385  16.2572  16.2830  16.3097  16.3372  16.3542
    16.3769  16.4051  16.4175  16.4373  16.4867  16.5027  16.5221  16.5360
    16.5483  16.5571  16.5600  16.5713  16.5816  16.5838  16.5924  16.5956
    16.6111  16.6148  16.6288  16.6313  16.6393  16.6482  16.6598  16.6748
    16.7152  16.7268  16.7314  16.7568  16.7948  16.8028  16.8229  16.8401
    16.8476  16.8614  16.8645  16.8708  16.8750  16.8901  16.9068  16.9190
    16.9301  16.9496  16.9604  16.9692  16.9784  16.9840  16.9897  17.0026
    17.0136  17.0247  17.0399  17.0457  17.0515  17.0685  17.0832  17.0947
    17.1030  17.1146  17.1223  17.1398  17.1484  17.1507  17.1565  17.1821
    17.1909  17.1940  17.2011  17.2170  17.2254  17.2346  17.2439  17.2542
    17.2645  17.2696  17.2754  17.2915  17.3055  17.3234  17.3370  17.3530
    17.3734  17.3995  17.4051  17.4119  17.4275  17.4289  17.4395  17.4574
    17.4629  17.4677  17.4802  17.4846  17.4888  17.4970  17.5003  17.5042
    17.5239  17.5289  17.5404  17.5438  17.5556  17.5602  17.5726  17.5765
    17.5933  17.5962  17.6010  17.6049  17.6219  17.6289  17.6384  17.6523
    17.6624  17.6685  17.6814  17.6889  17.6970  17.7209  17.7239  17.7406
    17.7679  17.7691  17.7787  17.7799  17.9070  17.9254  17.9355  17.9606
    17.9743  17.9914  18.0164  18.0254  18.0398  18.0554  18.0770  18.0956
    18.0997  18.1056  18.1179  18.1293  18.1352  18.1438  18.1574  18.1612
    18.1691  18.1821  18.1902  18.2011  18.2137  18.2203  18.2410  18.2440
    18.2518  18.2619  18.2763  18.2978  18.3133  18.3375  18.3668  18.3835
    18.3949  18.4504  18.4669  18.4870  18.4890  18.4948  18.5102  18.5259
    18.5347  18.5450  18.5653  18.5756  18.5877  18.5974  18.6258  18.6313
    18.6425  18.6581  18.6633  18.6942  18.7130  18.7258  18.7679  18.7848
    18.7942  18.8036  18.8390  18.8547  18.8750  18.8920  18.9092  18.9234
    18.9278  18.9333  18.9464  18.9690  18.9866  18.9950  19.0125  19.0170
    19.0310  19.0362  19.0532  19.0628  19.0659  19.0701  19.0776  19.0837

     highest occupied, lowest unoccupied level (ev):     7.7034    8.5436

!    total energy              =  -37799.97548900 Ry
     estimated scf accuracy    <       0.00000430 Ry

     The total energy is the sum of the following terms:
     one-electron contribution =  -19623.79169605 Ry
     hartree contribution      =   11810.25118503 Ry
     xc contribution           =   -9549.34731237 Ry
     ewald contribution        =  -20435.34024241 Ry
     Hubbard energy            =      -1.74742320 Ry

     convergence has been achieved in  12 iterations

     Writing all to output data dir ./tmp_In0.0Ga1.0As0.5Sb0.5_cube_3x3x3.1/In0.0Ga1.0As0.5Sb0.5_cube_3x3x3.1.save/ :
     XML data file, charge density, pseudopotentials, collected wavefunctions

     init_run     :    288.75s CPU    291.44s WALL (       1 calls)
     electrons    :  10783.69s CPU  10813.23s WALL (       1 calls)

     Called by init_run:
     wfcinit      :    280.69s CPU    283.18s WALL (       1 calls)
     potinit      :      0.43s CPU      0.49s WALL (       1 calls)
     hinit0       :      1.74s CPU      1.78s WALL (       1 calls)

     Called by electrons:
     c_bands      :  10380.44s CPU  10408.39s WALL (      13 calls)
     sum_band     :    397.04s CPU    397.90s WALL (      13 calls)
     v_of_rho     :      4.54s CPU      4.75s WALL (      13 calls)
     mix_rho      :      0.64s CPU      0.68s WALL (      13 calls)

     Called by c_bands:
     init_us_2    :     41.54s CPU     42.20s WALL (      28 calls)
     cegterg      :  10092.78s CPU  10119.25s WALL (      13 calls)

     Called by *egterg:
     cdiaghg      :    776.62s CPU    777.61s WALL (     107 calls)
     h_psi        :   6142.04s CPU   6159.59s WALL (     109 calls)
     g_psi        :      4.24s CPU      4.25s WALL (      95 calls)

     Called by h_psi:
     h_psi:calbec :   1036.15s CPU   1036.19s WALL (     109 calls)
     vloc_psi     :   1081.73s CPU   1084.32s WALL (     109 calls)
     add_vuspsi   :   1018.71s CPU   1020.85s WALL (     109 calls)
     vhpsi        :   2995.96s CPU   2996.18s WALL (     109 calls)

     General routines
     calbec       :   1327.75s CPU   1327.81s WALL (     232 calls)
     fft          :      3.88s CPU      4.08s WALL (     131 calls)
     ffts         :      0.29s CPU      0.29s WALL (      13 calls)
     fftw         :   1061.91s CPU   1064.45s WALL (  161456 calls)

     Parallel routines

     Hubbard U routines
     new_ns       :     74.18s CPU     74.19s WALL (      13 calls)
     vhpsi        :   2995.96s CPU   2996.18s WALL (     109 calls)

     PWSCF        :      3h 5m CPU      3h 6m WALL


   This run was terminated on:  20:50: 4  15May2025            

=------------------------------------------------------------------------------=
   JOB DONE.
=------------------------------------------------------------------------------=
