
     Program PWSCF v.7.3.1 starts on 13Jun2025 at 20:26:55 

     This program is part of the open-source Quantum ESPRESSO suite
     for quantum simulation of materials; please cite
         "P. Giannozzi et al., J. Phys.:Condens. Matter 21 395502 (2009);
         "P. Giannozzi et al., J. Phys.:Condens. Matter 29 465901 (2017);
         "P. Giannozzi et al., J. Chem. Phys. 152 154105 (2020);
          URL http://www.quantum-espresso.org", 
     in publications or presentations arising from this work. More details at
     http://www.quantum-espresso.org/quote

     Parallel version (MPI), running on   640 processors

     MPI processes distributed on     5 nodes
     434128 MiB available memory on the printing compute node when the environment starts

     Reading input from In0.0Ga1.0As0.75Sb0.25_cube_3x3x3.4.scf.in
Warning: card &CELL ignored
Warning: card   CELL_DOFREE = 'ALL', ignored
Warning: card / ignored

     Current dimensions of program PWSCF are:
     Max number of different atomic species (ntypx) = 10
     Max number of k-points (npk) =  40000
     Max angular momentum in pseudopotentials (lmaxx) =  4

     K-points division:     npool     =       8
     R & G space division:  proc/nbgrp/npool/nimage =      80
     Subspace diagonalization in iterative solution of the eigenvalue problem:
     one sub-group per band group will be used
     custom distributed-memory algorithm (size of sub-group:  8*  8 procs)


     Parallelization info
     --------------------
     sticks:   dense  smooth     PW     G-vecs:    dense   smooth      PW
     Min         515     515    132                78671    78671   10288
     Max         517     517    133                78675    78675   10295
     Sum       41217   41217  10629              6293821  6293821  823321

     Using Slab Decomposition



     bravais-lattice index     =            1
     lattice parameter (alat)  =      32.8505  a.u.
     unit-cell volume          =   35450.6461 (a.u.)^3
     number of atoms/cell      =          216
     number of atomic types    =            4
     number of electrons       =      3024.00
     number of Kohn-Sham states=         2160
     kinetic-energy cutoff     =     120.0000  Ry
     charge density cutoff     =     480.0000  Ry
     scf convergence threshold =      1.0E-05
     mixing beta               =       0.6500
     number of iterations used =            8  plain     mixing
     Exchange-correlation= PBE
                           (   1   4   3   4   0   0   0)
     Hubbard projectors: atomic
     Hubbard parameters of DFT+U (Dudarev formulation) in eV:
     U(As-4p) =  5.8400
     U(Ga-4p) = -3.2650
     U(In-5p) = -0.9725
     U(Sb-5p) =  4.8900

     Internal variables: lda_plus_u =T, lda_plus_u_kind = 0

     celldm(1)=  32.850455  celldm(2)=   0.000000  celldm(3)=   0.000000
     celldm(4)=   0.000000  celldm(5)=   0.000000  celldm(6)=   0.000000

     crystal axes: (cart. coord. in units of alat)
               a(1) = (   1.000000   0.000000   0.000000 )  
               a(2) = (   0.000000   1.000000   0.000000 )  
               a(3) = (   0.000000   0.000000   1.000000 )  

     reciprocal axes: (cart. coord. in units 2 pi/alat)
               b(1) = (  1.000000  0.000000  0.000000 )  
               b(2) = (  0.000000  1.000000  0.000000 )  
               b(3) = (  0.000000  0.000000  1.000000 )  


     PseudoPot. # 1 for As read from file:
     /work/i254/i254/gentles/data/pseudos/As.pbe.NC-SR.standard.v0.5.UPF
     MD5 check sum: bfe1a874457ce592347346129958e7cf
     Pseudo is Norm-conserving + core correction, Zval = 15.0
     Generated using ONCVPSP code by D. R. Hamann
     Using radial grid of 1358 points,  6 beta functions with: 
                l(1) =   0
                l(2) =   0
                l(3) =   1
                l(4) =   1
                l(5) =   2
                l(6) =   2

     PseudoPot. # 2 for Ga read from file:
     /work/i254/i254/gentles/data/pseudos/Ga.pbe.NC-SR.standard.v0.5.UPF
     MD5 check sum: 2bb81bf6f0a8d9832cf3329850435ecf
     Pseudo is Norm-conserving + core correction, Zval = 13.0
     Generated using ONCVPSP code by D. R. Hamann
     Using radial grid of 1902 points,  6 beta functions with: 
                l(1) =   0
                l(2) =   0
                l(3) =   1
                l(4) =   1
                l(5) =   2
                l(6) =   2

     PseudoPot. # 3 for In read from file:
     /work/i254/i254/gentles/data/pseudos/In.pbe.NC-SR.standard.v0.5.UPF
     MD5 check sum: 835f4bf908c982ff75c88e16816a8d7f
     Pseudo is Norm-conserving + core correction, Zval = 13.0
     Generated using ONCVPSP code by D. R. Hamann
     Using radial grid of 1964 points,  6 beta functions with: 
                l(1) =   0
                l(2) =   0
                l(3) =   1
                l(4) =   1
                l(5) =   2
                l(6) =   2

     PseudoPot. # 4 for Sb read from file:
     /work/i254/i254/gentles/data/pseudos/Sb.pbe.NC-SR.standard.v0.5.UPF
     MD5 check sum: 127f69b6101c45666faeae1b5d611565
     Pseudo is Norm-conserving + core correction, Zval = 15.0
     Generated using ONCVPSP code by D. R. Hamann
     Using radial grid of 1434 points,  6 beta functions with: 
                l(1) =   0
                l(2) =   0
                l(3) =   1
                l(4) =   1
                l(5) =   2
                l(6) =   2

     atomic species   valence    mass     pseudopotential
     As               15.00    74.92160     As( 1.00)
     Ga               13.00    69.72300     Ga( 1.00)
     In               13.00   114.81800     In( 1.00)
     Sb               15.00   121.76000     Sb( 1.00)

     No symmetry found



   Cartesian axes

     site n.     atom                  positions (alat units)
         1        Ga     tau(   1) = (  -0.0032220   0.0010760   0.0053130  )
         2        Ga     tau(   2) = (   0.0112530   0.1675020   0.1685520  )
         3        Ga     tau(   3) = (   0.1721600   0.0031400   0.1621180  )
         4        Ga     tau(   4) = (   0.1673170   0.1675730  -0.0008030  )
         5        As     tau(   5) = (   0.0863120   0.0841150   0.0821690  )
         6        As     tau(   6) = (   0.0873920   0.2539350   0.2493420  )
         7        As     tau(   7) = (   0.2529340   0.0855130   0.2470590  )
         8        As     tau(   8) = (   0.2480980   0.2496330   0.0850150  )
         9        Ga     tau(   9) = (  -0.0060400  -0.0057900   0.3397140  )
        10        Ga     tau(  10) = (  -0.0007480   0.1699530   0.5089660  )
        11        Ga     tau(  11) = (   0.1620060  -0.0079980   0.5045560  )
        12        Ga     tau(  12) = (   0.1715540   0.1718310   0.3280580  )
        13        Sb     tau(  13) = (   0.0836720   0.0851920   0.4178260  )
        14        As     tau(  14) = (   0.0844890   0.2554210   0.5833810  )
        15        Sb     tau(  15) = (   0.2489190   0.0834450   0.5841200  )
        16        As     tau(  16) = (   0.2492260   0.2543040   0.4126960  )
        17        Ga     tau(  17) = (   0.0030600   0.0031110   0.6634450  )
        18        Ga     tau(  18) = (   0.0048140   0.1606060   0.8379660  )
        19        Ga     tau(  19) = (   0.1718500   0.0028310   0.8293490  )
        20        Ga     tau(  20) = (   0.1614230   0.1724060   0.6695040  )
        21        As     tau(  21) = (   0.0852230   0.0833870   0.7495340  )
        22        As     tau(  22) = (   0.0838650   0.2498380   0.9169690  )
        23        As     tau(  23) = (   0.2495660   0.0832680   0.9175770  )
        24        As     tau(  24) = (   0.2432160   0.2513490   0.7512460  )
        25        Ga     tau(  25) = (   0.0062050   0.3410880  -0.0037030  )
        26        Ga     tau(  26) = (  -0.0020360   0.5004870   0.1671650  )
        27        Ga     tau(  27) = (   0.1669650   0.3347160   0.1653330  )
        28        Ga     tau(  28) = (   0.1618690   0.5059610   0.0040130  )
        29        As     tau(  29) = (   0.0837130   0.4203390   0.0852060  )
        30        As     tau(  30) = (   0.0816580   0.5828160   0.2490960  )
        31        As     tau(  31) = (   0.2485700   0.4161950   0.2481370  )
        32        As     tau(  32) = (   0.2477950   0.5851050   0.0833070  )
        33        Ga     tau(  33) = (   0.0035280   0.3382580   0.3288430  )
        34        Ga     tau(  34) = (   0.0009650   0.5014130   0.4970340  )
        35        Ga     tau(  35) = (   0.1661260   0.3348920   0.4973530  )
        36        Ga     tau(  36) = (   0.1628130   0.4970990   0.3285150  )
        37        As     tau(  37) = (   0.0834070   0.4177160   0.4148190  )
        38        As     tau(  38) = (   0.0809690   0.5830720   0.5847420  )
        39        As     tau(  39) = (   0.2462790   0.4174510   0.5831020  )
        40        Sb     tau(  40) = (   0.2478830   0.5837650   0.4179800  )
        41        Ga     tau(  41) = (   0.0039340   0.3415090   0.6611340  )
        42        Ga     tau(  42) = (   0.0005940   0.5037320   0.8323050  )
        43        Ga     tau(  43) = (   0.1603450   0.3323660   0.8303710  )
        44        Ga     tau(  44) = (   0.1662510   0.5023870   0.6668680  )
        45        As     tau(  45) = (   0.0825900   0.4207610   0.7490310  )
        46        As     tau(  46) = (   0.0832670   0.5844800   0.9158350  )
        47        Sb     tau(  47) = (   0.2483380   0.4187680   0.9183090  )
        48        As     tau(  48) = (   0.2489970   0.5867730   0.7490820  )
        49        Ga     tau(  49) = (   0.0038880   0.6615730   0.0040840  )
        50        Ga     tau(  50) = (  -0.0033930   0.8255010   0.1610710  )
        51        Ga     tau(  51) = (   0.1670480   0.6648190   0.1682020  )
        52        Ga     tau(  52) = (   0.1715870   0.8274860   0.0052700  )
        53        As     tau(  53) = (   0.0854830   0.7452520   0.0845250  )
        54        Sb     tau(  54) = (   0.0825590   0.9143440   0.2472380  )
        55        As     tau(  55) = (   0.2500430   0.7492760   0.2467230  )
        56        As     tau(  56) = (   0.2526050   0.9157380   0.0827090  )
        57        Ga     tau(  57) = (  -0.0004500   0.6652050   0.3330830  )
        58        Ga     tau(  58) = (  -0.0020630   0.8305360   0.5015880  )
        59        Ga     tau(  59) = (   0.1611560   0.6696670   0.5058120  )
        60        Ga     tau(  60) = (   0.1655930   0.8224530   0.3325530  )
        61        As     tau(  61) = (   0.0799420   0.7475380   0.4183290  )
        62        As     tau(  62) = (   0.0806130   0.9117290   0.5856740  )
        63        As     tau(  63) = (   0.2502950   0.7497890   0.5850420  )
        64        Sb     tau(  64) = (   0.2524210   0.9117910   0.4163260  )
        65        Ga     tau(  65) = (  -0.0003190   0.6660690   0.6667490  )
        66        Ga     tau(  66) = (   0.0057280   0.8267290   0.8290600  )
        67        Ga     tau(  67) = (   0.1669600   0.6666760   0.8337860  )
        68        Ga     tau(  68) = (   0.1666470   0.8311250   0.6676830  )
        69        As     tau(  69) = (   0.0861660   0.7457940   0.7474260  )
        70        Sb     tau(  70) = (   0.0865150   0.9161570   0.9184790  )
        71        As     tau(  71) = (   0.2505650   0.7473410   0.9181250  )
        72        As     tau(  72) = (   0.2486100   0.9120260   0.7509200  )
        73        Ga     tau(  73) = (   0.3335960  -0.0019670  -0.0008740  )
        74        Ga     tau(  74) = (   0.3331440   0.1686870   0.1651300  )
        75        Ga     tau(  75) = (   0.4966510   0.0014400   0.1696840  )
        76        Ga     tau(  76) = (   0.5002870   0.1550540   0.0005870  )
        77        As     tau(  77) = (   0.4140980   0.0806700   0.0846850  )
        78        As     tau(  78) = (   0.4135990   0.2514520   0.2504800  )
        79        As     tau(  79) = (   0.5821600   0.0837720   0.2503470  )
        80        Sb     tau(  80) = (   0.5797870   0.2526570   0.0851050  )
        81        Ga     tau(  81) = (   0.3359130   0.0013440   0.3283010  )
        82        Ga     tau(  82) = (   0.3311980   0.1669130   0.4875660  )
        83        Ga     tau(  83) = (   0.4959150   0.0021290   0.5029590  )
        84        Ga     tau(  84) = (   0.4963920   0.1645890   0.3297560  )
        85        As     tau(  85) = (   0.4161260   0.0821490   0.4130510  )
        86        Sb     tau(  86) = (   0.4137220   0.2514310   0.5802050  )
        87        As     tau(  87) = (   0.5857430   0.0788420   0.5833250  )
        88        Sb     tau(  88) = (   0.5845500   0.2511640   0.4162830  )
        89        Ga     tau(  89) = (   0.3319970  -0.0115740   0.6667770  )
        90        Ga     tau(  90) = (   0.3239730   0.1681250   0.8329060  )
        91        Ga     tau(  91) = (   0.5030610  -0.0077360   0.8379670  )
        92        Ga     tau(  92) = (   0.5020730   0.1610390   0.6616690  )
        93        Sb     tau(  93) = (   0.4152430   0.0784430   0.7518900  )
        94        Sb     tau(  94) = (   0.4159840   0.2488520   0.9194850  )
        95        As     tau(  95) = (   0.5832080   0.0782400   0.9151650  )
        96        Sb     tau(  96) = (   0.5840420   0.2511530   0.7483150  )
        97        Ga     tau(  97) = (   0.3333010   0.3342040   0.0103560  )
        98        Ga     tau(  98) = (   0.3270330   0.4991680   0.1636550  )
        99        Ga     tau(  99) = (   0.4943950   0.3397530   0.1731150  )
       100        Ga     tau( 100) = (   0.4978100   0.5034360   0.0024060  )
       101        As     tau( 101) = (   0.4152050   0.4205780   0.0867030  )
       102        Sb     tau( 102) = (   0.4182380   0.5842430   0.2483350  )
       103        As     tau( 103) = (   0.5847920   0.4197150   0.2499460  )
       104        As     tau( 104) = (   0.5849720   0.5852640   0.0812150  )
       105        Ga     tau( 105) = (   0.3327310   0.3359540   0.3325630  )
       106        Ga     tau( 106) = (   0.3360190   0.4967920   0.5045460  )
       107        Ga     tau( 107) = (   0.5003750   0.3442470   0.4997800  )
       108        Ga     tau( 108) = (   0.5048910   0.4982410   0.3365890  )
       109        As     tau( 109) = (   0.4163330   0.4191540   0.4156020  )
       110        As     tau( 110) = (   0.4166640   0.5842520   0.5827800  )
       111        As     tau( 111) = (   0.5867090   0.4230550   0.5797970  )
       112        As     tau( 112) = (   0.5851720   0.5830240   0.4165030  )
       113        Ga     tau( 113) = (   0.3221360   0.3331750   0.6679720  )
       114        Ga     tau( 114) = (   0.3332140   0.5116030   0.8344490  )
       115        Ga     tau( 115) = (   0.5040790   0.3401770   0.8395380  )
       116        Ga     tau( 116) = (   0.5059330   0.5065230   0.6621320  )
       117        Sb     tau( 117) = (   0.4162080   0.4212940   0.7482510  )
       118        As     tau( 118) = (   0.4177740   0.5878500   0.9189290  )
       119        As     tau( 119) = (   0.5825950   0.4235210   0.9216480  )
       120        As     tau( 120) = (   0.5828940   0.5856220   0.7517990  )
       121        Ga     tau( 121) = (   0.3327200   0.6661490   0.0016950  )
       122        Ga     tau( 122) = (   0.3335150   0.8340390   0.1656140  )
       123        Ga     tau( 123) = (   0.5048190   0.6702060   0.1607700  )
       124        Ga     tau( 124) = (   0.4940340   0.8266900  -0.0040580  )
       125        As     tau( 125) = (   0.4146170   0.7489520   0.0829580  )
       126        As     tau( 126) = (   0.4157990   0.9150690   0.2486000  )
       127        As     tau( 127) = (   0.5837950   0.7471900   0.2504050  )
       128        Sb     tau( 128) = (   0.5817240   0.9119700   0.0838630  )
       129        Ga     tau( 129) = (   0.3325350   0.6739790   0.3323790  )
       130        Ga     tau( 130) = (   0.3397500   0.8272090   0.5043530  )
       131        Ga     tau( 131) = (   0.4963330   0.6618400   0.4938660  )
       132        Ga     tau( 132) = (   0.4965120   0.8286650   0.3284950  )
       133        As     tau( 133) = (   0.4173610   0.7489330   0.4153750  )
       134        As     tau( 134) = (   0.4181100   0.9137390   0.5848460  )
       135        Sb     tau( 135) = (   0.5831730   0.7473950   0.5834290  )
       136        Sb     tau( 136) = (   0.5827320   0.9159830   0.4148640  )
       137        Ga     tau( 137) = (   0.3328350   0.6673060   0.6668010  )
       138        Ga     tau( 138) = (   0.3309640   0.8308150   0.8346080  )
       139        Ga     tau( 139) = (   0.4999930   0.6684920   0.8331120  )
       140        Ga     tau( 140) = (   0.4976470   0.8349440   0.6720740  )
       141        As     tau( 141) = (   0.4145750   0.7499630   0.7515960  )
       142        As     tau( 142) = (   0.4145120   0.9130780   0.9163990  )
       143        As     tau( 143) = (   0.5837480   0.7487370   0.9155370  )
       144        As     tau( 144) = (   0.5847260   0.9134190   0.7520250  )
       145        Ga     tau( 145) = (   0.6655760  -0.0033270  -0.0072840  )
       146        Ga     tau( 146) = (   0.6658780   0.1694960   0.1746170  )
       147        Ga     tau( 147) = (   0.8335280  -0.0129060   0.1672820  )
       148        Ga     tau( 148) = (   0.8398390   0.1637200  -0.0008190  )
       149        Sb     tau( 149) = (   0.7496110   0.0800060   0.0849310  )
       150        As     tau( 150) = (   0.7493650   0.2544730   0.2516190  )
       151        Sb     tau( 151) = (   0.9149320   0.0826720   0.2494480  )
       152        Sb     tau( 152) = (   0.9217030   0.2547450   0.0849520  )
       153        Ga     tau( 153) = (   0.6695790   0.0026800   0.3293720  )
       154        Ga     tau( 154) = (   0.6703730   0.1609150   0.5022040  )
       155        Ga     tau( 155) = (   0.8344540  -0.0018700   0.5001760  )
       156        Ga     tau( 156) = (   0.8253420   0.1685570   0.3344540  )
       157        As     tau( 157) = (   0.7506870   0.0806830   0.4170190  )
       158        As     tau( 158) = (   0.7510290   0.2487440   0.5805940  )
       159        As     tau( 159) = (   0.9157170   0.0827210   0.5833530  )
       160        Sb     tau( 160) = (   0.9161100   0.2541400   0.4171090  )
       161        Ga     tau( 161) = (   0.6663220  -0.0053000   0.6670450  )
       162        Ga     tau( 162) = (   0.6664540   0.1583420   0.8316110  )
       163        Ga     tau( 163) = (   0.8307680   0.0003240   0.8364690  )
       164        Ga     tau( 164) = (   0.8292060   0.1626900   0.6644220  )
       165        As     tau( 165) = (   0.7489480   0.0785680   0.7487730  )
       166        Sb     tau( 166) = (   0.7499860   0.2513700   0.9174920  )
       167        As     tau( 167) = (   0.9179920   0.0802270   0.9175470  )
       168        Sb     tau( 168) = (   0.9209040   0.2492440   0.7484260  )
       169        Ga     tau( 169) = (   0.6669940   0.3441910   0.0032440  )
       170        Ga     tau( 170) = (   0.6661130   0.5041150   0.1670100  )
       171        Ga     tau( 171) = (   0.8306550   0.3391890   0.1707950  )
       172        Ga     tau( 172) = (   0.8346380   0.5030320   0.0012920  )
       173        As     tau( 173) = (   0.7510300   0.4228350   0.0860190  )
       174        As     tau( 174) = (   0.7499310   0.5840650   0.2506980  )
       175        As     tau( 175) = (   0.9162710   0.4200530   0.2510330  )
       176        As     tau( 176) = (   0.9170320   0.5830220   0.0852160  )
       177        Ga     tau( 177) = (   0.6708660   0.3403520   0.3304680  )
       178        Ga     tau( 178) = (   0.6695500   0.5043120   0.4988180  )
       179        Ga     tau( 179) = (   0.8297200   0.3404840   0.5025080  )
       180        Ga     tau( 180) = (   0.8344880   0.5024320   0.3340360  )
       181        As     tau( 181) = (   0.7506110   0.4220350   0.4164180  )
       182        As     tau( 182) = (   0.7530230   0.5852400   0.5816560  )
       183        As     tau( 183) = (   0.9181570   0.4211570   0.5803040  )
       184        As     tau( 184) = (   0.9175300   0.5837470   0.4156920  )
       185        Ga     tau( 185) = (   0.6682490   0.3346900   0.6569020  )
       186        Ga     tau( 186) = (   0.6614630   0.5060500   0.8384990  )
       187        Ga     tau( 187) = (   0.8399040   0.3401750   0.8365250  )
       188        Ga     tau( 188) = (   0.8402250   0.5069700   0.6609910  )
       189        Sb     tau( 189) = (   0.7507400   0.4227900   0.7479860  )
       190        As     tau( 190) = (   0.7494400   0.5839740   0.9179750  )
       191        As     tau( 191) = (   0.9203530   0.4233650   0.9178630  )
       192        As     tau( 192) = (   0.9181450   0.5851610   0.7490050  )
       193        Ga     tau( 193) = (   0.6677350   0.6676380  -0.0003580  )
       194        Ga     tau( 194) = (   0.6703620   0.8272590   0.1728620  )
       195        Ga     tau( 195) = (   0.8333040   0.6653730   0.1672350  )
       196        Ga     tau( 196) = (   0.8278380   0.8354980   0.0024180  )
       197        As     tau( 197) = (   0.7500370   0.7484180   0.0853300  )
       198        As     tau( 198) = (   0.7511470   0.9120460   0.2532400  )
       199        As     tau( 199) = (   0.9162380   0.7473410   0.2495830  )
       200        As     tau( 200) = (   0.9158580   0.9118990   0.0823180  )
       201        Ga     tau( 201) = (   0.6664360   0.6655460   0.3335590  )
       202        Ga     tau( 202) = (   0.6751600   0.8316210   0.4984530  )
       203        Ga     tau( 203) = (   0.8347830   0.6657860   0.4981260  )
       204        Ga     tau( 204) = (   0.8341420   0.8296040   0.3341790  )
       205        As     tau( 205) = (   0.7524030   0.7467640   0.4149310  )
       206        As     tau( 206) = (   0.7513150   0.9155100   0.5827390  )
       207        As     tau( 207) = (   0.9162540   0.7465910   0.5823480  )
       208        As     tau( 208) = (   0.9138580   0.9112660   0.4204620  )
       209        Ga     tau( 209) = (   0.6706840   0.6617510   0.6703390  )
       210        Ga     tau( 210) = (   0.6674370   0.8299360   0.8322820  )
       211        Ga     tau( 211) = (   0.8296300   0.6615870   0.8296850  )
       212        Ga     tau( 212) = (   0.8297770   0.8270890   0.6618010  )
       213        As     tau( 213) = (   0.7498090   0.7472380   0.7493530  )
       214        As     tau( 214) = (   0.7485570   0.9143360   0.9145310  )
       215        Sb     tau( 215) = (   0.9153870   0.7467550   0.9180820  )
       216        Sb     tau( 216) = (   0.9163870   0.9149290   0.7477550  )

     number of k points=     8
                       cart. coord. in units 2pi/alat
        k(    1) = (   0.0000000   0.0000000   0.0000000), wk =   0.2500000
        k(    2) = (   0.0000000   0.0000000  -0.5000000), wk =   0.2500000
        k(    3) = (   0.0000000  -0.5000000  -0.5000000), wk =   0.2500000
        k(    4) = (  -0.5000000  -0.5000000  -0.5000000), wk =   0.2500000
        k(    5) = (  -0.5000000   0.0000000   0.0000000), wk =   0.2500000
        k(    6) = (   0.0000000  -0.5000000   0.0000000), wk =   0.2500000
        k(    7) = (  -0.5000000   0.0000000   0.5000000), wk =   0.2500000
        k(    8) = (  -0.5000000   0.5000000   0.0000000), wk =   0.2500000

     Dense  grid:  6293821 G-vectors     FFT dimensions: ( 240, 240, 240)

     Estimated max dynamical RAM per process >       2.44 GB

     Estimated total dynamical RAM >    1553.25 GB

     Initial potential from superposition of free atoms

     starting charge    3023.6766, renormalised to    3024.0000

     STARTING HUBBARD OCCUPATIONS:

     =================== HUBBARD OCCUPATIONS ===================
     ------------------------ ATOM    1 ------------------------
     Tr[ns(  1)] =   1.00000
     eigenvalues:
       0.167  0.167  0.167
     eigenvectors (columns):
       1.000  0.000  0.000
       0.000  1.000  0.000
       0.000  0.000  1.000
     occupation matrix ns (before diag.):
       0.167  0.000  0.000
       0.000  0.167  0.000
       0.000  0.000  0.167
     ------------------------ ATOM    2 ------------------------
     Tr[ns(  2)] =   1.00000
     eigenvalues:
       0.167  0.167  0.167
     eigenvectors (columns):
       1.000  0.000  0.000
       0.000  1.000  0.000
       0.000  0.000  1.000
     occupation matrix ns (before diag.):
       0.167  0.000  0.000
       0.000  0.167  0.000
       0.000  0.000  0.167
     ------------------------ ATOM    3 ------------------------
     Tr[ns(  3)] =   1.00000
     eigenvalues:
       0.167  0.167  0.167
     eigenvectors (columns):
       1.000  0.000  0.000
       0.000  1.000  0.000
       0.000  0.000  1.000
     occupation matrix ns (before diag.):
       0.167  0.000  0.000
       0.000  0.167  0.000
       0.000  0.000  0.167
     ------------------------ ATOM    4 ------------------------
     Tr[ns(  4)] =   1.00000
     eigenvalues:
       0.167  0.167  0.167
     eigenvectors (columns):
       1.000  0.000  0.000
       0.000  1.000  0.000
       0.000  0.000  1.000
     occupation matrix ns (before diag.):
       0.167  0.000  0.000
       0.000  0.167  0.000
       0.000  0.000  0.167
     ------------------------ ATOM    5 ------------------------
     Tr[ns(  5)] =   3.00000
     eigenvalues:
       0.500  0.500  0.500
     eigenvectors (columns):
       1.000  0.000  0.000
       0.000  1.000  0.000
       0.000  0.000  1.000
     occupation matrix ns (before diag.):
       0.500  0.000  0.000
       0.000  0.500  0.000
       0.000  0.000  0.500
     ------------------------ ATOM    6 ------------------------
     Tr[ns(  6)] =   3.00000
     eigenvalues:
       0.500  0.500  0.500
     eigenvectors (columns):
       1.000  0.000  0.000
       0.000  1.000  0.000
       0.000  0.000  1.000
     occupation matrix ns (before diag.):
       0.500  0.000  0.000
       0.000  0.500  0.000
       0.000  0.000  0.500
     ------------------------ ATOM    7 ------------------------
     Tr[ns(  7)] =   3.00000
     eigenvalues:
       0.500  0.500  0.500
     eigenvectors (columns):
       1.000  0.000  0.000
       0.000  1.000  0.000
       0.000  0.000  1.000
     occupation matrix ns (before diag.):
       0.500  0.000  0.000
       0.000  0.500  0.000
       0.000  0.000  0.500
     ------------------------ ATOM    8 ------------------------
     Tr[ns(  8)] =   3.00000
     eigenvalues:
       0.500  0.500  0.500
     eigenvectors (columns):
       1.000  0.000  0.000
       0.000  1.000  0.000
       0.000  0.000  1.000
     occupation matrix ns (before diag.):
       0.500  0.000  0.000
       0.000  0.500  0.000
       0.000  0.000  0.500
     ------------------------ ATOM    9 ------------------------
     Tr[ns(  9)] =   1.00000
     eigenvalues:
       0.167  0.167  0.167
     eigenvectors (columns):
       1.000  0.000  0.000
       0.000  1.000  0.000
       0.000  0.000  1.000
     occupation matrix ns (before diag.):
       0.167  0.000  0.000
       0.000  0.167  0.000
       0.000  0.000  0.167
     ------------------------ ATOM   10 ------------------------
     Tr[ns( 10)] =   1.00000
     eigenvalues:
       0.167  0.167  0.167
     eigenvectors (columns):
       1.000  0.000  0.000
       0.000  1.000  0.000
       0.000  0.000  1.000
     occupation matrix ns (before diag.):
       0.167  0.000  0.000
       0.000  0.167  0.000
       0.000  0.000  0.167
     ------------------------ ATOM   11 ------------------------
     Tr[ns( 11)] =   1.00000
     eigenvalues:
       0.167  0.167  0.167
     eigenvectors (columns):
       1.000  0.000  0.000
       0.000  1.000  0.000
       0.000  0.000  1.000
     occupation matrix ns (before diag.):
       0.167  0.000  0.000
       0.000  0.167  0.000
       0.000  0.000  0.167
     ------------------------ ATOM   12 ------------------------
     Tr[ns( 12)] =   1.00000
     eigenvalues:
       0.167  0.167  0.167
     eigenvectors (columns):
       1.000  0.000  0.000
       0.000  1.000  0.000
       0.000  0.000  1.000
     occupation matrix ns (before diag.):
       0.167  0.000  0.000
       0.000  0.167  0.000
       0.000  0.000  0.167
     ------------------------ ATOM   13 ------------------------
     Tr[ns( 13)] =   3.00000
     eigenvalues:
       0.500  0.500  0.500
     eigenvectors (columns):
       1.000  0.000  0.000
       0.000  1.000  0.000
       0.000  0.000  1.000
     occupation matrix ns (before diag.):
       0.500  0.000  0.000
       0.000  0.500  0.000
       0.000  0.000  0.500
     ------------------------ ATOM   14 ------------------------
     Tr[ns( 14)] =   3.00000
     eigenvalues:
       0.500  0.500  0.500
     eigenvectors (columns):
       1.000  0.000  0.000
       0.000  1.000  0.000
       0.000  0.000  1.000
     occupation matrix ns (before diag.):
       0.500  0.000  0.000
       0.000  0.500  0.000
       0.000  0.000  0.500
     ------------------------ ATOM   15 ------------------------
     Tr[ns( 15)] =   3.00000
     eigenvalues:
       0.500  0.500  0.500
     eigenvectors (columns):
       1.000  0.000  0.000
       0.000  1.000  0.000
       0.000  0.000  1.000
     occupation matrix ns (before diag.):
       0.500  0.000  0.000
       0.000  0.500  0.000
       0.000  0.000  0.500
     ------------------------ ATOM   16 ------------------------
     Tr[ns( 16)] =   3.00000
     eigenvalues:
       0.500  0.500  0.500
     eigenvectors (columns):
       1.000  0.000  0.000
       0.000  1.000  0.000
       0.000  0.000  1.000
     occupation matrix ns (before diag.):
       0.500  0.000  0.000
       0.000  0.500  0.000
       0.000  0.000  0.500
     ------------------------ ATOM   17 ------------------------
     Tr[ns( 17)] =   1.00000
     eigenvalues:
       0.167  0.167  0.167
     eigenvectors (columns):
       1.000  0.000  0.000
       0.000  1.000  0.000
       0.000  0.000  1.000
     occupation matrix ns (before diag.):
       0.167  0.000  0.000
       0.000  0.167  0.000
       0.000  0.000  0.167
     ------------------------ ATOM   18 ------------------------
     Tr[ns( 18)] =   1.00000
     eigenvalues:
       0.167  0.167  0.167
     eigenvectors (columns):
       1.000  0.000  0.000
       0.000  1.000  0.000
       0.000  0.000  1.000
     occupation matrix ns (before diag.):
       0.167  0.000  0.000
       0.000  0.167  0.000
       0.000  0.000  0.167
     ------------------------ ATOM   19 ------------------------
     Tr[ns( 19)] =   1.00000
     eigenvalues:
       0.167  0.167  0.167
     eigenvectors (columns):
       1.000  0.000  0.000
       0.000  1.000  0.000
       0.000  0.000  1.000
     occupation matrix ns (before diag.):
       0.167  0.000  0.000
       0.000  0.167  0.000
       0.000  0.000  0.167
     ------------------------ ATOM   20 ------------------------
     Tr[ns( 20)] =   1.00000
     eigenvalues:
       0.167  0.167  0.167
     eigenvectors (columns):
       1.000  0.000  0.000
       0.000  1.000  0.000
       0.000  0.000  1.000
     occupation matrix ns (before diag.):
       0.167  0.000  0.000
       0.000  0.167  0.000
       0.000  0.000  0.167
     ------------------------ ATOM   21 ------------------------
     Tr[ns( 21)] =   3.00000
     eigenvalues:
       0.500  0.500  0.500
     eigenvectors (columns):
       1.000  0.000  0.000
       0.000  1.000  0.000
       0.000  0.000  1.000
     occupation matrix ns (before diag.):
       0.500  0.000  0.000
       0.000  0.500  0.000
       0.000  0.000  0.500
     ------------------------ ATOM   22 ------------------------
     Tr[ns( 22)] =   3.00000
     eigenvalues:
       0.500  0.500  0.500
     eigenvectors (columns):
       1.000  0.000  0.000
       0.000  1.000  0.000
       0.000  0.000  1.000
     occupation matrix ns (before diag.):
       0.500  0.000  0.000
       0.000  0.500  0.000
       0.000  0.000  0.500
     ------------------------ ATOM   23 ------------------------
     Tr[ns( 23)] =   3.00000
     eigenvalues:
       0.500  0.500  0.500
     eigenvectors (columns):
       1.000  0.000  0.000
       0.000  1.000  0.000
       0.000  0.000  1.000
     occupation matrix ns (before diag.):
       0.500  0.000  0.000
       0.000  0.500  0.000
       0.000  0.000  0.500
     ------------------------ ATOM   24 ------------------------
     Tr[ns( 24)] =   3.00000
     eigenvalues:
       0.500  0.500  0.500
     eigenvectors (columns):
       1.000  0.000  0.000
       0.000  1.000  0.000
       0.000  0.000  1.000
     occupation matrix ns (before diag.):
       0.500  0.000  0.000
       0.000  0.500  0.000
       0.000  0.000  0.500
     ------------------------ ATOM   25 ------------------------
     Tr[ns( 25)] =   1.00000
     eigenvalues:
       0.167  0.167  0.167
     eigenvectors (columns):
       1.000  0.000  0.000
       0.000  1.000  0.000
       0.000  0.000  1.000
     occupation matrix ns (before diag.):
       0.167  0.000  0.000
       0.000  0.167  0.000
       0.000  0.000  0.167
     ------------------------ ATOM   26 ------------------------
     Tr[ns( 26)] =   1.00000
     eigenvalues:
       0.167  0.167  0.167
     eigenvectors (columns):
       1.000  0.000  0.000
       0.000  1.000  0.000
       0.000  0.000  1.000
     occupation matrix ns (before diag.):
       0.167  0.000  0.000
       0.000  0.167  0.000
       0.000  0.000  0.167
     ------------------------ ATOM   27 ------------------------
     Tr[ns( 27)] =   1.00000
     eigenvalues:
       0.167  0.167  0.167
     eigenvectors (columns):
       1.000  0.000  0.000
       0.000  1.000  0.000
       0.000  0.000  1.000
     occupation matrix ns (before diag.):
       0.167  0.000  0.000
       0.000  0.167  0.000
       0.000  0.000  0.167
     ------------------------ ATOM   28 ------------------------
     Tr[ns( 28)] =   1.00000
     eigenvalues:
       0.167  0.167  0.167
     eigenvectors (columns):
       1.000  0.000  0.000
       0.000  1.000  0.000
       0.000  0.000  1.000
     occupation matrix ns (before diag.):
       0.167  0.000  0.000
       0.000  0.167  0.000
       0.000  0.000  0.167
     ------------------------ ATOM   29 ------------------------
     Tr[ns( 29)] =   3.00000
     eigenvalues:
       0.500  0.500  0.500
     eigenvectors (columns):
       1.000  0.000  0.000
       0.000  1.000  0.000
       0.000  0.000  1.000
     occupation matrix ns (before diag.):
       0.500  0.000  0.000
       0.000  0.500  0.000
       0.000  0.000  0.500
     ------------------------ ATOM   30 ------------------------
     Tr[ns( 30)] =   3.00000
     eigenvalues:
       0.500  0.500  0.500
     eigenvectors (columns):
       1.000  0.000  0.000
       0.000  1.000  0.000
       0.000  0.000  1.000
     occupation matrix ns (before diag.):
       0.500  0.000  0.000
       0.000  0.500  0.000
       0.000  0.000  0.500
     ------------------------ ATOM   31 ------------------------
     Tr[ns( 31)] =   3.00000
     eigenvalues:
       0.500  0.500  0.500
     eigenvectors (columns):
       1.000  0.000  0.000
       0.000  1.000  0.000
       0.000  0.000  1.000
     occupation matrix ns (before diag.):
       0.500  0.000  0.000
       0.000  0.500  0.000
       0.000  0.000  0.500
     ------------------------ ATOM   32 ------------------------
     Tr[ns( 32)] =   3.00000
     eigenvalues:
       0.500  0.500  0.500
     eigenvectors (columns):
       1.000  0.000  0.000
       0.000  1.000  0.000
       0.000  0.000  1.000
     occupation matrix ns (before diag.):
       0.500  0.000  0.000
       0.000  0.500  0.000
       0.000  0.000  0.500
     ------------------------ ATOM   33 ------------------------
     Tr[ns( 33)] =   1.00000
     eigenvalues:
       0.167  0.167  0.167
     eigenvectors (columns):
       1.000  0.000  0.000
       0.000  1.000  0.000
       0.000  0.000  1.000
     occupation matrix ns (before diag.):
       0.167  0.000  0.000
       0.000  0.167  0.000
       0.000  0.000  0.167
     ------------------------ ATOM   34 ------------------------
     Tr[ns( 34)] =   1.00000
     eigenvalues:
       0.167  0.167  0.167
     eigenvectors (columns):
       1.000  0.000  0.000
       0.000  1.000  0.000
       0.000  0.000  1.000
     occupation matrix ns (before diag.):
       0.167  0.000  0.000
       0.000  0.167  0.000
       0.000  0.000  0.167
     ------------------------ ATOM   35 ------------------------
     Tr[ns( 35)] =   1.00000
     eigenvalues:
       0.167  0.167  0.167
     eigenvectors (columns):
       1.000  0.000  0.000
       0.000  1.000  0.000
       0.000  0.000  1.000
     occupation matrix ns (before diag.):
       0.167  0.000  0.000
       0.000  0.167  0.000
       0.000  0.000  0.167
     ------------------------ ATOM   36 ------------------------
     Tr[ns( 36)] =   1.00000
     eigenvalues:
       0.167  0.167  0.167
     eigenvectors (columns):
       1.000  0.000  0.000
       0.000  1.000  0.000
       0.000  0.000  1.000
     occupation matrix ns (before diag.):
       0.167  0.000  0.000
       0.000  0.167  0.000
       0.000  0.000  0.167
     ------------------------ ATOM   37 ------------------------
     Tr[ns( 37)] =   3.00000
     eigenvalues:
       0.500  0.500  0.500
     eigenvectors (columns):
       1.000  0.000  0.000
       0.000  1.000  0.000
       0.000  0.000  1.000
     occupation matrix ns (before diag.):
       0.500  0.000  0.000
       0.000  0.500  0.000
       0.000  0.000  0.500
     ------------------------ ATOM   38 ------------------------
     Tr[ns( 38)] =   3.00000
     eigenvalues:
       0.500  0.500  0.500
     eigenvectors (columns):
       1.000  0.000  0.000
       0.000  1.000  0.000
       0.000  0.000  1.000
     occupation matrix ns (before diag.):
       0.500  0.000  0.000
       0.000  0.500  0.000
       0.000  0.000  0.500
     ------------------------ ATOM   39 ------------------------
     Tr[ns( 39)] =   3.00000
     eigenvalues:
       0.500  0.500  0.500
     eigenvectors (columns):
       1.000  0.000  0.000
       0.000  1.000  0.000
       0.000  0.000  1.000
     occupation matrix ns (before diag.):
       0.500  0.000  0.000
       0.000  0.500  0.000
       0.000  0.000  0.500
     ------------------------ ATOM   40 ------------------------
     Tr[ns( 40)] =   3.00000
     eigenvalues:
       0.500  0.500  0.500
     eigenvectors (columns):
       1.000  0.000  0.000
       0.000  1.000  0.000
       0.000  0.000  1.000
     occupation matrix ns (before diag.):
       0.500  0.000  0.000
       0.000  0.500  0.000
       0.000  0.000  0.500
     ------------------------ ATOM   41 ------------------------
     Tr[ns( 41)] =   1.00000
     eigenvalues:
       0.167  0.167  0.167
     eigenvectors (columns):
       1.000  0.000  0.000
       0.000  1.000  0.000
       0.000  0.000  1.000
     occupation matrix ns (before diag.):
       0.167  0.000  0.000
       0.000  0.167  0.000
       0.000  0.000  0.167
     ------------------------ ATOM   42 ------------------------
     Tr[ns( 42)] =   1.00000
     eigenvalues:
       0.167  0.167  0.167
     eigenvectors (columns):
       1.000  0.000  0.000
       0.000  1.000  0.000
       0.000  0.000  1.000
     occupation matrix ns (before diag.):
       0.167  0.000  0.000
       0.000  0.167  0.000
       0.000  0.000  0.167
     ------------------------ ATOM   43 ------------------------
     Tr[ns( 43)] =   1.00000
     eigenvalues:
       0.167  0.167  0.167
     eigenvectors (columns):
       1.000  0.000  0.000
       0.000  1.000  0.000
       0.000  0.000  1.000
     occupation matrix ns (before diag.):
       0.167  0.000  0.000
       0.000  0.167  0.000
       0.000  0.000  0.167
     ------------------------ ATOM   44 ------------------------
     Tr[ns( 44)] =   1.00000
     eigenvalues:
       0.167  0.167  0.167
     eigenvectors (columns):
       1.000  0.000  0.000
       0.000  1.000  0.000
       0.000  0.000  1.000
     occupation matrix ns (before diag.):
       0.167  0.000  0.000
       0.000  0.167  0.000
       0.000  0.000  0.167
     ------------------------ ATOM   45 ------------------------
     Tr[ns( 45)] =   3.00000
     eigenvalues:
       0.500  0.500  0.500
     eigenvectors (columns):
       1.000  0.000  0.000
       0.000  1.000  0.000
       0.000  0.000  1.000
     occupation matrix ns (before diag.):
       0.500  0.000  0.000
       0.000  0.500  0.000
       0.000  0.000  0.500
     ------------------------ ATOM   46 ------------------------
     Tr[ns( 46)] =   3.00000
     eigenvalues:
       0.500  0.500  0.500
     eigenvectors (columns):
       1.000  0.000  0.000
       0.000  1.000  0.000
       0.000  0.000  1.000
     occupation matrix ns (before diag.):
       0.500  0.000  0.000
       0.000  0.500  0.000
       0.000  0.000  0.500
     ------------------------ ATOM   47 ------------------------
     Tr[ns( 47)] =   3.00000
     eigenvalues:
       0.500  0.500  0.500
     eigenvectors (columns):
       1.000  0.000  0.000
       0.000  1.000  0.000
       0.000  0.000  1.000
     occupation matrix ns (before diag.):
       0.500  0.000  0.000
       0.000  0.500  0.000
       0.000  0.000  0.500
     ------------------------ ATOM   48 ------------------------
     Tr[ns( 48)] =   3.00000
     eigenvalues:
       0.500  0.500  0.500
     eigenvectors (columns):
       1.000  0.000  0.000
       0.000  1.000  0.000
       0.000  0.000  1.000
     occupation matrix ns (before diag.):
       0.500  0.000  0.000
       0.000  0.500  0.000
       0.000  0.000  0.500
     ------------------------ ATOM   49 ------------------------
     Tr[ns( 49)] =   1.00000
     eigenvalues:
       0.167  0.167  0.167
     eigenvectors (columns):
       1.000  0.000  0.000
       0.000  1.000  0.000
       0.000  0.000  1.000
     occupation matrix ns (before diag.):
       0.167  0.000  0.000
       0.000  0.167  0.000
       0.000  0.000  0.167
     ------------------------ ATOM   50 ------------------------
     Tr[ns( 50)] =   1.00000
     eigenvalues:
       0.167  0.167  0.167
     eigenvectors (columns):
       1.000  0.000  0.000
       0.000  1.000  0.000
       0.000  0.000  1.000
     occupation matrix ns (before diag.):
       0.167  0.000  0.000
       0.000  0.167  0.000
       0.000  0.000  0.167
     ------------------------ ATOM   51 ------------------------
     Tr[ns( 51)] =   1.00000
     eigenvalues:
       0.167  0.167  0.167
     eigenvectors (columns):
       1.000  0.000  0.000
       0.000  1.000  0.000
       0.000  0.000  1.000
     occupation matrix ns (before diag.):
       0.167  0.000  0.000
       0.000  0.167  0.000
       0.000  0.000  0.167
     ------------------------ ATOM   52 ------------------------
     Tr[ns( 52)] =   1.00000
     eigenvalues:
       0.167  0.167  0.167
     eigenvectors (columns):
       1.000  0.000  0.000
       0.000  1.000  0.000
       0.000  0.000  1.000
     occupation matrix ns (before diag.):
       0.167  0.000  0.000
       0.000  0.167  0.000
       0.000  0.000  0.167
     ------------------------ ATOM   53 ------------------------
     Tr[ns( 53)] =   3.00000
     eigenvalues:
       0.500  0.500  0.500
     eigenvectors (columns):
       1.000  0.000  0.000
       0.000  1.000  0.000
       0.000  0.000  1.000
     occupation matrix ns (before diag.):
       0.500  0.000  0.000
       0.000  0.500  0.000
       0.000  0.000  0.500
     ------------------------ ATOM   54 ------------------------
     Tr[ns( 54)] =   3.00000
     eigenvalues:
       0.500  0.500  0.500
     eigenvectors (columns):
       1.000  0.000  0.000
       0.000  1.000  0.000
       0.000  0.000  1.000
     occupation matrix ns (before diag.):
       0.500  0.000  0.000
       0.000  0.500  0.000
       0.000  0.000  0.500
     ------------------------ ATOM   55 ------------------------
     Tr[ns( 55)] =   3.00000
     eigenvalues:
       0.500  0.500  0.500
     eigenvectors (columns):
       1.000  0.000  0.000
       0.000  1.000  0.000
       0.000  0.000  1.000
     occupation matrix ns (before diag.):
       0.500  0.000  0.000
       0.000  0.500  0.000
       0.000  0.000  0.500
     ------------------------ ATOM   56 ------------------------
     Tr[ns( 56)] =   3.00000
     eigenvalues:
       0.500  0.500  0.500
     eigenvectors (columns):
       1.000  0.000  0.000
       0.000  1.000  0.000
       0.000  0.000  1.000
     occupation matrix ns (before diag.):
       0.500  0.000  0.000
       0.000  0.500  0.000
       0.000  0.000  0.500
     ------------------------ ATOM   57 ------------------------
     Tr[ns( 57)] =   1.00000
     eigenvalues:
       0.167  0.167  0.167
     eigenvectors (columns):
       1.000  0.000  0.000
       0.000  1.000  0.000
       0.000  0.000  1.000
     occupation matrix ns (before diag.):
       0.167  0.000  0.000
       0.000  0.167  0.000
       0.000  0.000  0.167
     ------------------------ ATOM   58 ------------------------
     Tr[ns( 58)] =   1.00000
     eigenvalues:
       0.167  0.167  0.167
     eigenvectors (columns):
       1.000  0.000  0.000
       0.000  1.000  0.000
       0.000  0.000  1.000
     occupation matrix ns (before diag.):
       0.167  0.000  0.000
       0.000  0.167  0.000
       0.000  0.000  0.167
     ------------------------ ATOM   59 ------------------------
     Tr[ns( 59)] =   1.00000
     eigenvalues:
       0.167  0.167  0.167
     eigenvectors (columns):
       1.000  0.000  0.000
       0.000  1.000  0.000
       0.000  0.000  1.000
     occupation matrix ns (before diag.):
       0.167  0.000  0.000
       0.000  0.167  0.000
       0.000  0.000  0.167
     ------------------------ ATOM   60 ------------------------
     Tr[ns( 60)] =   1.00000
     eigenvalues:
       0.167  0.167  0.167
     eigenvectors (columns):
       1.000  0.000  0.000
       0.000  1.000  0.000
       0.000  0.000  1.000
     occupation matrix ns (before diag.):
       0.167  0.000  0.000
       0.000  0.167  0.000
       0.000  0.000  0.167
     ------------------------ ATOM   61 ------------------------
     Tr[ns( 61)] =   3.00000
     eigenvalues:
       0.500  0.500  0.500
     eigenvectors (columns):
       1.000  0.000  0.000
       0.000  1.000  0.000
       0.000  0.000  1.000
     occupation matrix ns (before diag.):
       0.500  0.000  0.000
       0.000  0.500  0.000
       0.000  0.000  0.500
     ------------------------ ATOM   62 ------------------------
     Tr[ns( 62)] =   3.00000
     eigenvalues:
       0.500  0.500  0.500
     eigenvectors (columns):
       1.000  0.000  0.000
       0.000  1.000  0.000
       0.000  0.000  1.000
     occupation matrix ns (before diag.):
       0.500  0.000  0.000
       0.000  0.500  0.000
       0.000  0.000  0.500
     ------------------------ ATOM   63 ------------------------
     Tr[ns( 63)] =   3.00000
     eigenvalues:
       0.500  0.500  0.500
     eigenvectors (columns):
       1.000  0.000  0.000
       0.000  1.000  0.000
       0.000  0.000  1.000
     occupation matrix ns (before diag.):
       0.500  0.000  0.000
       0.000  0.500  0.000
       0.000  0.000  0.500
     ------------------------ ATOM   64 ------------------------
     Tr[ns( 64)] =   3.00000
     eigenvalues:
       0.500  0.500  0.500
     eigenvectors (columns):
       1.000  0.000  0.000
       0.000  1.000  0.000
       0.000  0.000  1.000
     occupation matrix ns (before diag.):
       0.500  0.000  0.000
       0.000  0.500  0.000
       0.000  0.000  0.500
     ------------------------ ATOM   65 ------------------------
     Tr[ns( 65)] =   1.00000
     eigenvalues:
       0.167  0.167  0.167
     eigenvectors (columns):
       1.000  0.000  0.000
       0.000  1.000  0.000
       0.000  0.000  1.000
     occupation matrix ns (before diag.):
       0.167  0.000  0.000
       0.000  0.167  0.000
       0.000  0.000  0.167
     ------------------------ ATOM   66 ------------------------
     Tr[ns( 66)] =   1.00000
     eigenvalues:
       0.167  0.167  0.167
     eigenvectors (columns):
       1.000  0.000  0.000
       0.000  1.000  0.000
       0.000  0.000  1.000
     occupation matrix ns (before diag.):
       0.167  0.000  0.000
       0.000  0.167  0.000
       0.000  0.000  0.167
     ------------------------ ATOM   67 ------------------------
     Tr[ns( 67)] =   1.00000
     eigenvalues:
       0.167  0.167  0.167
     eigenvectors (columns):
       1.000  0.000  0.000
       0.000  1.000  0.000
       0.000  0.000  1.000
     occupation matrix ns (before diag.):
       0.167  0.000  0.000
       0.000  0.167  0.000
       0.000  0.000  0.167
     ------------------------ ATOM   68 ------------------------
     Tr[ns( 68)] =   1.00000
     eigenvalues:
       0.167  0.167  0.167
     eigenvectors (columns):
       1.000  0.000  0.000
       0.000  1.000  0.000
       0.000  0.000  1.000
     occupation matrix ns (before diag.):
       0.167  0.000  0.000
       0.000  0.167  0.000
       0.000  0.000  0.167
     ------------------------ ATOM   69 ------------------------
     Tr[ns( 69)] =   3.00000
     eigenvalues:
       0.500  0.500  0.500
     eigenvectors (columns):
       1.000  0.000  0.000
       0.000  1.000  0.000
       0.000  0.000  1.000
     occupation matrix ns (before diag.):
       0.500  0.000  0.000
       0.000  0.500  0.000
       0.000  0.000  0.500
     ------------------------ ATOM   70 ------------------------
     Tr[ns( 70)] =   3.00000
     eigenvalues:
       0.500  0.500  0.500
     eigenvectors (columns):
       1.000  0.000  0.000
       0.000  1.000  0.000
       0.000  0.000  1.000
     occupation matrix ns (before diag.):
       0.500  0.000  0.000
       0.000  0.500  0.000
       0.000  0.000  0.500
     ------------------------ ATOM   71 ------------------------
     Tr[ns( 71)] =   3.00000
     eigenvalues:
       0.500  0.500  0.500
     eigenvectors (columns):
       1.000  0.000  0.000
       0.000  1.000  0.000
       0.000  0.000  1.000
     occupation matrix ns (before diag.):
       0.500  0.000  0.000
       0.000  0.500  0.000
       0.000  0.000  0.500
     ------------------------ ATOM   72 ------------------------
     Tr[ns( 72)] =   3.00000
     eigenvalues:
       0.500  0.500  0.500
     eigenvectors (columns):
       1.000  0.000  0.000
       0.000  1.000  0.000
       0.000  0.000  1.000
     occupation matrix ns (before diag.):
       0.500  0.000  0.000
       0.000  0.500  0.000
       0.000  0.000  0.500
     ------------------------ ATOM   73 ------------------------
     Tr[ns( 73)] =   1.00000
     eigenvalues:
       0.167  0.167  0.167
     eigenvectors (columns):
       1.000  0.000  0.000
       0.000  1.000  0.000
       0.000  0.000  1.000
     occupation matrix ns (before diag.):
       0.167  0.000  0.000
       0.000  0.167  0.000
       0.000  0.000  0.167
     ------------------------ ATOM   74 ------------------------
     Tr[ns( 74)] =   1.00000
     eigenvalues:
       0.167  0.167  0.167
     eigenvectors (columns):
       1.000  0.000  0.000
       0.000  1.000  0.000
       0.000  0.000  1.000
     occupation matrix ns (before diag.):
       0.167  0.000  0.000
       0.000  0.167  0.000
       0.000  0.000  0.167
     ------------------------ ATOM   75 ------------------------
     Tr[ns( 75)] =   1.00000
     eigenvalues:
       0.167  0.167  0.167
     eigenvectors (columns):
       1.000  0.000  0.000
       0.000  1.000  0.000
       0.000  0.000  1.000
     occupation matrix ns (before diag.):
       0.167  0.000  0.000
       0.000  0.167  0.000
       0.000  0.000  0.167
     ------------------------ ATOM   76 ------------------------
     Tr[ns( 76)] =   1.00000
     eigenvalues:
       0.167  0.167  0.167
     eigenvectors (columns):
       1.000  0.000  0.000
       0.000  1.000  0.000
       0.000  0.000  1.000
     occupation matrix ns (before diag.):
       0.167  0.000  0.000
       0.000  0.167  0.000
       0.000  0.000  0.167
     ------------------------ ATOM   77 ------------------------
     Tr[ns( 77)] =   3.00000
     eigenvalues:
       0.500  0.500  0.500
     eigenvectors (columns):
       1.000  0.000  0.000
       0.000  1.000  0.000
       0.000  0.000  1.000
     occupation matrix ns (before diag.):
       0.500  0.000  0.000
       0.000  0.500  0.000
       0.000  0.000  0.500
     ------------------------ ATOM   78 ------------------------
     Tr[ns( 78)] =   3.00000
     eigenvalues:
       0.500  0.500  0.500
     eigenvectors (columns):
       1.000  0.000  0.000
       0.000  1.000  0.000
       0.000  0.000  1.000
     occupation matrix ns (before diag.):
       0.500  0.000  0.000
       0.000  0.500  0.000
       0.000  0.000  0.500
     ------------------------ ATOM   79 ------------------------
     Tr[ns( 79)] =   3.00000
     eigenvalues:
       0.500  0.500  0.500
     eigenvectors (columns):
       1.000  0.000  0.000
       0.000  1.000  0.000
       0.000  0.000  1.000
     occupation matrix ns (before diag.):
       0.500  0.000  0.000
       0.000  0.500  0.000
       0.000  0.000  0.500
     ------------------------ ATOM   80 ------------------------
     Tr[ns( 80)] =   3.00000
     eigenvalues:
       0.500  0.500  0.500
     eigenvectors (columns):
       1.000  0.000  0.000
       0.000  1.000  0.000
       0.000  0.000  1.000
     occupation matrix ns (before diag.):
       0.500  0.000  0.000
       0.000  0.500  0.000
       0.000  0.000  0.500
     ------------------------ ATOM   81 ------------------------
     Tr[ns( 81)] =   1.00000
     eigenvalues:
       0.167  0.167  0.167
     eigenvectors (columns):
       1.000  0.000  0.000
       0.000  1.000  0.000
       0.000  0.000  1.000
     occupation matrix ns (before diag.):
       0.167  0.000  0.000
       0.000  0.167  0.000
       0.000  0.000  0.167
     ------------------------ ATOM   82 ------------------------
     Tr[ns( 82)] =   1.00000
     eigenvalues:
       0.167  0.167  0.167
     eigenvectors (columns):
       1.000  0.000  0.000
       0.000  1.000  0.000
       0.000  0.000  1.000
     occupation matrix ns (before diag.):
       0.167  0.000  0.000
       0.000  0.167  0.000
       0.000  0.000  0.167
     ------------------------ ATOM   83 ------------------------
     Tr[ns( 83)] =   1.00000
     eigenvalues:
       0.167  0.167  0.167
     eigenvectors (columns):
       1.000  0.000  0.000
       0.000  1.000  0.000
       0.000  0.000  1.000
     occupation matrix ns (before diag.):
       0.167  0.000  0.000
       0.000  0.167  0.000
       0.000  0.000  0.167
     ------------------------ ATOM   84 ------------------------
     Tr[ns( 84)] =   1.00000
     eigenvalues:
       0.167  0.167  0.167
     eigenvectors (columns):
       1.000  0.000  0.000
       0.000  1.000  0.000
       0.000  0.000  1.000
     occupation matrix ns (before diag.):
       0.167  0.000  0.000
       0.000  0.167  0.000
       0.000  0.000  0.167
     ------------------------ ATOM   85 ------------------------
     Tr[ns( 85)] =   3.00000
     eigenvalues:
       0.500  0.500  0.500
     eigenvectors (columns):
       1.000  0.000  0.000
       0.000  1.000  0.000
       0.000  0.000  1.000
     occupation matrix ns (before diag.):
       0.500  0.000  0.000
       0.000  0.500  0.000
       0.000  0.000  0.500
     ------------------------ ATOM   86 ------------------------
     Tr[ns( 86)] =   3.00000
     eigenvalues:
       0.500  0.500  0.500
     eigenvectors (columns):
       1.000  0.000  0.000
       0.000  1.000  0.000
       0.000  0.000  1.000
     occupation matrix ns (before diag.):
       0.500  0.000  0.000
       0.000  0.500  0.000
       0.000  0.000  0.500
     ------------------------ ATOM   87 ------------------------
     Tr[ns( 87)] =   3.00000
     eigenvalues:
       0.500  0.500  0.500
     eigenvectors (columns):
       1.000  0.000  0.000
       0.000  1.000  0.000
       0.000  0.000  1.000
     occupation matrix ns (before diag.):
       0.500  0.000  0.000
       0.000  0.500  0.000
       0.000  0.000  0.500
     ------------------------ ATOM   88 ------------------------
     Tr[ns( 88)] =   3.00000
     eigenvalues:
       0.500  0.500  0.500
     eigenvectors (columns):
       1.000  0.000  0.000
       0.000  1.000  0.000
       0.000  0.000  1.000
     occupation matrix ns (before diag.):
       0.500  0.000  0.000
       0.000  0.500  0.000
       0.000  0.000  0.500
     ------------------------ ATOM   89 ------------------------
     Tr[ns( 89)] =   1.00000
     eigenvalues:
       0.167  0.167  0.167
     eigenvectors (columns):
       1.000  0.000  0.000
       0.000  1.000  0.000
       0.000  0.000  1.000
     occupation matrix ns (before diag.):
       0.167  0.000  0.000
       0.000  0.167  0.000
       0.000  0.000  0.167
     ------------------------ ATOM   90 ------------------------
     Tr[ns( 90)] =   1.00000
     eigenvalues:
       0.167  0.167  0.167
     eigenvectors (columns):
       1.000  0.000  0.000
       0.000  1.000  0.000
       0.000  0.000  1.000
     occupation matrix ns (before diag.):
       0.167  0.000  0.000
       0.000  0.167  0.000
       0.000  0.000  0.167
     ------------------------ ATOM   91 ------------------------
     Tr[ns( 91)] =   1.00000
     eigenvalues:
       0.167  0.167  0.167
     eigenvectors (columns):
       1.000  0.000  0.000
       0.000  1.000  0.000
       0.000  0.000  1.000
     occupation matrix ns (before diag.):
       0.167  0.000  0.000
       0.000  0.167  0.000
       0.000  0.000  0.167
     ------------------------ ATOM   92 ------------------------
     Tr[ns( 92)] =   1.00000
     eigenvalues:
       0.167  0.167  0.167
     eigenvectors (columns):
       1.000  0.000  0.000
       0.000  1.000  0.000
       0.000  0.000  1.000
     occupation matrix ns (before diag.):
       0.167  0.000  0.000
       0.000  0.167  0.000
       0.000  0.000  0.167
     ------------------------ ATOM   93 ------------------------
     Tr[ns( 93)] =   3.00000
     eigenvalues:
       0.500  0.500  0.500
     eigenvectors (columns):
       1.000  0.000  0.000
       0.000  1.000  0.000
       0.000  0.000  1.000
     occupation matrix ns (before diag.):
       0.500  0.000  0.000
       0.000  0.500  0.000
       0.000  0.000  0.500
     ------------------------ ATOM   94 ------------------------
     Tr[ns( 94)] =   3.00000
     eigenvalues:
       0.500  0.500  0.500
     eigenvectors (columns):
       1.000  0.000  0.000
       0.000  1.000  0.000
       0.000  0.000  1.000
     occupation matrix ns (before diag.):
       0.500  0.000  0.000
       0.000  0.500  0.000
       0.000  0.000  0.500
     ------------------------ ATOM   95 ------------------------
     Tr[ns( 95)] =   3.00000
     eigenvalues:
       0.500  0.500  0.500
     eigenvectors (columns):
       1.000  0.000  0.000
       0.000  1.000  0.000
       0.000  0.000  1.000
     occupation matrix ns (before diag.):
       0.500  0.000  0.000
       0.000  0.500  0.000
       0.000  0.000  0.500
     ------------------------ ATOM   96 ------------------------
     Tr[ns( 96)] =   3.00000
     eigenvalues:
       0.500  0.500  0.500
     eigenvectors (columns):
       1.000  0.000  0.000
       0.000  1.000  0.000
       0.000  0.000  1.000
     occupation matrix ns (before diag.):
       0.500  0.000  0.000
       0.000  0.500  0.000
       0.000  0.000  0.500
     ------------------------ ATOM   97 ------------------------
     Tr[ns( 97)] =   1.00000
     eigenvalues:
       0.167  0.167  0.167
     eigenvectors (columns):
       1.000  0.000  0.000
       0.000  1.000  0.000
       0.000  0.000  1.000
     occupation matrix ns (before diag.):
       0.167  0.000  0.000
       0.000  0.167  0.000
       0.000  0.000  0.167
     ------------------------ ATOM   98 ------------------------
     Tr[ns( 98)] =   1.00000
     eigenvalues:
       0.167  0.167  0.167
     eigenvectors (columns):
       1.000  0.000  0.000
       0.000  1.000  0.000
       0.000  0.000  1.000
     occupation matrix ns (before diag.):
       0.167  0.000  0.000
       0.000  0.167  0.000
       0.000  0.000  0.167
     ------------------------ ATOM   99 ------------------------
     Tr[ns( 99)] =   1.00000
     eigenvalues:
       0.167  0.167  0.167
     eigenvectors (columns):
       1.000  0.000  0.000
       0.000  1.000  0.000
       0.000  0.000  1.000
     occupation matrix ns (before diag.):
       0.167  0.000  0.000
       0.000  0.167  0.000
       0.000  0.000  0.167
     ------------------------ ATOM  100 ------------------------
     Tr[ns(100)] =   1.00000
     eigenvalues:
       0.167  0.167  0.167
     eigenvectors (columns):
       1.000  0.000  0.000
       0.000  1.000  0.000
       0.000  0.000  1.000
     occupation matrix ns (before diag.):
       0.167  0.000  0.000
       0.000  0.167  0.000
       0.000  0.000  0.167
     ------------------------ ATOM  101 ------------------------
     Tr[ns(101)] =   3.00000
     eigenvalues:
       0.500  0.500  0.500
     eigenvectors (columns):
       1.000  0.000  0.000
       0.000  1.000  0.000
       0.000  0.000  1.000
     occupation matrix ns (before diag.):
       0.500  0.000  0.000
       0.000  0.500  0.000
       0.000  0.000  0.500
     ------------------------ ATOM  102 ------------------------
     Tr[ns(102)] =   3.00000
     eigenvalues:
       0.500  0.500  0.500
     eigenvectors (columns):
       1.000  0.000  0.000
       0.000  1.000  0.000
       0.000  0.000  1.000
     occupation matrix ns (before diag.):
       0.500  0.000  0.000
       0.000  0.500  0.000
       0.000  0.000  0.500
     ------------------------ ATOM  103 ------------------------
     Tr[ns(103)] =   3.00000
     eigenvalues:
       0.500  0.500  0.500
     eigenvectors (columns):
       1.000  0.000  0.000
       0.000  1.000  0.000
       0.000  0.000  1.000
     occupation matrix ns (before diag.):
       0.500  0.000  0.000
       0.000  0.500  0.000
       0.000  0.000  0.500
     ------------------------ ATOM  104 ------------------------
     Tr[ns(104)] =   3.00000
     eigenvalues:
       0.500  0.500  0.500
     eigenvectors (columns):
       1.000  0.000  0.000
       0.000  1.000  0.000
       0.000  0.000  1.000
     occupation matrix ns (before diag.):
       0.500  0.000  0.000
       0.000  0.500  0.000
       0.000  0.000  0.500
     ------------------------ ATOM  105 ------------------------
     Tr[ns(105)] =   1.00000
     eigenvalues:
       0.167  0.167  0.167
     eigenvectors (columns):
       1.000  0.000  0.000
       0.000  1.000  0.000
       0.000  0.000  1.000
     occupation matrix ns (before diag.):
       0.167  0.000  0.000
       0.000  0.167  0.000
       0.000  0.000  0.167
     ------------------------ ATOM  106 ------------------------
     Tr[ns(106)] =   1.00000
     eigenvalues:
       0.167  0.167  0.167
     eigenvectors (columns):
       1.000  0.000  0.000
       0.000  1.000  0.000
       0.000  0.000  1.000
     occupation matrix ns (before diag.):
       0.167  0.000  0.000
       0.000  0.167  0.000
       0.000  0.000  0.167
     ------------------------ ATOM  107 ------------------------
     Tr[ns(107)] =   1.00000
     eigenvalues:
       0.167  0.167  0.167
     eigenvectors (columns):
       1.000  0.000  0.000
       0.000  1.000  0.000
       0.000  0.000  1.000
     occupation matrix ns (before diag.):
       0.167  0.000  0.000
       0.000  0.167  0.000
       0.000  0.000  0.167
     ------------------------ ATOM  108 ------------------------
     Tr[ns(108)] =   1.00000
     eigenvalues:
       0.167  0.167  0.167
     eigenvectors (columns):
       1.000  0.000  0.000
       0.000  1.000  0.000
       0.000  0.000  1.000
     occupation matrix ns (before diag.):
       0.167  0.000  0.000
       0.000  0.167  0.000
       0.000  0.000  0.167
     ------------------------ ATOM  109 ------------------------
     Tr[ns(109)] =   3.00000
     eigenvalues:
       0.500  0.500  0.500
     eigenvectors (columns):
       1.000  0.000  0.000
       0.000  1.000  0.000
       0.000  0.000  1.000
     occupation matrix ns (before diag.):
       0.500  0.000  0.000
       0.000  0.500  0.000
       0.000  0.000  0.500
     ------------------------ ATOM  110 ------------------------
     Tr[ns(110)] =   3.00000
     eigenvalues:
       0.500  0.500  0.500
     eigenvectors (columns):
       1.000  0.000  0.000
       0.000  1.000  0.000
       0.000  0.000  1.000
     occupation matrix ns (before diag.):
       0.500  0.000  0.000
       0.000  0.500  0.000
       0.000  0.000  0.500
     ------------------------ ATOM  111 ------------------------
     Tr[ns(111)] =   3.00000
     eigenvalues:
       0.500  0.500  0.500
     eigenvectors (columns):
       1.000  0.000  0.000
       0.000  1.000  0.000
       0.000  0.000  1.000
     occupation matrix ns (before diag.):
       0.500  0.000  0.000
       0.000  0.500  0.000
       0.000  0.000  0.500
     ------------------------ ATOM  112 ------------------------
     Tr[ns(112)] =   3.00000
     eigenvalues:
       0.500  0.500  0.500
     eigenvectors (columns):
       1.000  0.000  0.000
       0.000  1.000  0.000
       0.000  0.000  1.000
     occupation matrix ns (before diag.):
       0.500  0.000  0.000
       0.000  0.500  0.000
       0.000  0.000  0.500
     ------------------------ ATOM  113 ------------------------
     Tr[ns(113)] =   1.00000
     eigenvalues:
       0.167  0.167  0.167
     eigenvectors (columns):
       1.000  0.000  0.000
       0.000  1.000  0.000
       0.000  0.000  1.000
     occupation matrix ns (before diag.):
       0.167  0.000  0.000
       0.000  0.167  0.000
       0.000  0.000  0.167
     ------------------------ ATOM  114 ------------------------
     Tr[ns(114)] =   1.00000
     eigenvalues:
       0.167  0.167  0.167
     eigenvectors (columns):
       1.000  0.000  0.000
       0.000  1.000  0.000
       0.000  0.000  1.000
     occupation matrix ns (before diag.):
       0.167  0.000  0.000
       0.000  0.167  0.000
       0.000  0.000  0.167
     ------------------------ ATOM  115 ------------------------
     Tr[ns(115)] =   1.00000
     eigenvalues:
       0.167  0.167  0.167
     eigenvectors (columns):
       1.000  0.000  0.000
       0.000  1.000  0.000
       0.000  0.000  1.000
     occupation matrix ns (before diag.):
       0.167  0.000  0.000
       0.000  0.167  0.000
       0.000  0.000  0.167
     ------------------------ ATOM  116 ------------------------
     Tr[ns(116)] =   1.00000
     eigenvalues:
       0.167  0.167  0.167
     eigenvectors (columns):
       1.000  0.000  0.000
       0.000  1.000  0.000
       0.000  0.000  1.000
     occupation matrix ns (before diag.):
       0.167  0.000  0.000
       0.000  0.167  0.000
       0.000  0.000  0.167
     ------------------------ ATOM  117 ------------------------
     Tr[ns(117)] =   3.00000
     eigenvalues:
       0.500  0.500  0.500
     eigenvectors (columns):
       1.000  0.000  0.000
       0.000  1.000  0.000
       0.000  0.000  1.000
     occupation matrix ns (before diag.):
       0.500  0.000  0.000
       0.000  0.500  0.000
       0.000  0.000  0.500
     ------------------------ ATOM  118 ------------------------
     Tr[ns(118)] =   3.00000
     eigenvalues:
       0.500  0.500  0.500
     eigenvectors (columns):
       1.000  0.000  0.000
       0.000  1.000  0.000
       0.000  0.000  1.000
     occupation matrix ns (before diag.):
       0.500  0.000  0.000
       0.000  0.500  0.000
       0.000  0.000  0.500
     ------------------------ ATOM  119 ------------------------
     Tr[ns(119)] =   3.00000
     eigenvalues:
       0.500  0.500  0.500
     eigenvectors (columns):
       1.000  0.000  0.000
       0.000  1.000  0.000
       0.000  0.000  1.000
     occupation matrix ns (before diag.):
       0.500  0.000  0.000
       0.000  0.500  0.000
       0.000  0.000  0.500
     ------------------------ ATOM  120 ------------------------
     Tr[ns(120)] =   3.00000
     eigenvalues:
       0.500  0.500  0.500
     eigenvectors (columns):
       1.000  0.000  0.000
       0.000  1.000  0.000
       0.000  0.000  1.000
     occupation matrix ns (before diag.):
       0.500  0.000  0.000
       0.000  0.500  0.000
       0.000  0.000  0.500
     ------------------------ ATOM  121 ------------------------
     Tr[ns(121)] =   1.00000
     eigenvalues:
       0.167  0.167  0.167
     eigenvectors (columns):
       1.000  0.000  0.000
       0.000  1.000  0.000
       0.000  0.000  1.000
     occupation matrix ns (before diag.):
       0.167  0.000  0.000
       0.000  0.167  0.000
       0.000  0.000  0.167
     ------------------------ ATOM  122 ------------------------
     Tr[ns(122)] =   1.00000
     eigenvalues:
       0.167  0.167  0.167
     eigenvectors (columns):
       1.000  0.000  0.000
       0.000  1.000  0.000
       0.000  0.000  1.000
     occupation matrix ns (before diag.):
       0.167  0.000  0.000
       0.000  0.167  0.000
       0.000  0.000  0.167
     ------------------------ ATOM  123 ------------------------
     Tr[ns(123)] =   1.00000
     eigenvalues:
       0.167  0.167  0.167
     eigenvectors (columns):
       1.000  0.000  0.000
       0.000  1.000  0.000
       0.000  0.000  1.000
     occupation matrix ns (before diag.):
       0.167  0.000  0.000
       0.000  0.167  0.000
       0.000  0.000  0.167
     ------------------------ ATOM  124 ------------------------
     Tr[ns(124)] =   1.00000
     eigenvalues:
       0.167  0.167  0.167
     eigenvectors (columns):
       1.000  0.000  0.000
       0.000  1.000  0.000
       0.000  0.000  1.000
     occupation matrix ns (before diag.):
       0.167  0.000  0.000
       0.000  0.167  0.000
       0.000  0.000  0.167
     ------------------------ ATOM  125 ------------------------
     Tr[ns(125)] =   3.00000
     eigenvalues:
       0.500  0.500  0.500
     eigenvectors (columns):
       1.000  0.000  0.000
       0.000  1.000  0.000
       0.000  0.000  1.000
     occupation matrix ns (before diag.):
       0.500  0.000  0.000
       0.000  0.500  0.000
       0.000  0.000  0.500
     ------------------------ ATOM  126 ------------------------
     Tr[ns(126)] =   3.00000
     eigenvalues:
       0.500  0.500  0.500
     eigenvectors (columns):
       1.000  0.000  0.000
       0.000  1.000  0.000
       0.000  0.000  1.000
     occupation matrix ns (before diag.):
       0.500  0.000  0.000
       0.000  0.500  0.000
       0.000  0.000  0.500
     ------------------------ ATOM  127 ------------------------
     Tr[ns(127)] =   3.00000
     eigenvalues:
       0.500  0.500  0.500
     eigenvectors (columns):
       1.000  0.000  0.000
       0.000  1.000  0.000
       0.000  0.000  1.000
     occupation matrix ns (before diag.):
       0.500  0.000  0.000
       0.000  0.500  0.000
       0.000  0.000  0.500
     ------------------------ ATOM  128 ------------------------
     Tr[ns(128)] =   3.00000
     eigenvalues:
       0.500  0.500  0.500
     eigenvectors (columns):
       1.000  0.000  0.000
       0.000  1.000  0.000
       0.000  0.000  1.000
     occupation matrix ns (before diag.):
       0.500  0.000  0.000
       0.000  0.500  0.000
       0.000  0.000  0.500
     ------------------------ ATOM  129 ------------------------
     Tr[ns(129)] =   1.00000
     eigenvalues:
       0.167  0.167  0.167
     eigenvectors (columns):
       1.000  0.000  0.000
       0.000  1.000  0.000
       0.000  0.000  1.000
     occupation matrix ns (before diag.):
       0.167  0.000  0.000
       0.000  0.167  0.000
       0.000  0.000  0.167
     ------------------------ ATOM  130 ------------------------
     Tr[ns(130)] =   1.00000
     eigenvalues:
       0.167  0.167  0.167
     eigenvectors (columns):
       1.000  0.000  0.000
       0.000  1.000  0.000
       0.000  0.000  1.000
     occupation matrix ns (before diag.):
       0.167  0.000  0.000
       0.000  0.167  0.000
       0.000  0.000  0.167
     ------------------------ ATOM  131 ------------------------
     Tr[ns(131)] =   1.00000
     eigenvalues:
       0.167  0.167  0.167
     eigenvectors (columns):
       1.000  0.000  0.000
       0.000  1.000  0.000
       0.000  0.000  1.000
     occupation matrix ns (before diag.):
       0.167  0.000  0.000
       0.000  0.167  0.000
       0.000  0.000  0.167
     ------------------------ ATOM  132 ------------------------
     Tr[ns(132)] =   1.00000
     eigenvalues:
       0.167  0.167  0.167
     eigenvectors (columns):
       1.000  0.000  0.000
       0.000  1.000  0.000
       0.000  0.000  1.000
     occupation matrix ns (before diag.):
       0.167  0.000  0.000
       0.000  0.167  0.000
       0.000  0.000  0.167
     ------------------------ ATOM  133 ------------------------
     Tr[ns(133)] =   3.00000
     eigenvalues:
       0.500  0.500  0.500
     eigenvectors (columns):
       1.000  0.000  0.000
       0.000  1.000  0.000
       0.000  0.000  1.000
     occupation matrix ns (before diag.):
       0.500  0.000  0.000
       0.000  0.500  0.000
       0.000  0.000  0.500
     ------------------------ ATOM  134 ------------------------
     Tr[ns(134)] =   3.00000
     eigenvalues:
       0.500  0.500  0.500
     eigenvectors (columns):
       1.000  0.000  0.000
       0.000  1.000  0.000
       0.000  0.000  1.000
     occupation matrix ns (before diag.):
       0.500  0.000  0.000
       0.000  0.500  0.000
       0.000  0.000  0.500
     ------------------------ ATOM  135 ------------------------
     Tr[ns(135)] =   3.00000
     eigenvalues:
       0.500  0.500  0.500
     eigenvectors (columns):
       1.000  0.000  0.000
       0.000  1.000  0.000
       0.000  0.000  1.000
     occupation matrix ns (before diag.):
       0.500  0.000  0.000
       0.000  0.500  0.000
       0.000  0.000  0.500
     ------------------------ ATOM  136 ------------------------
     Tr[ns(136)] =   3.00000
     eigenvalues:
       0.500  0.500  0.500
     eigenvectors (columns):
       1.000  0.000  0.000
       0.000  1.000  0.000
       0.000  0.000  1.000
     occupation matrix ns (before diag.):
       0.500  0.000  0.000
       0.000  0.500  0.000
       0.000  0.000  0.500
     ------------------------ ATOM  137 ------------------------
     Tr[ns(137)] =   1.00000
     eigenvalues:
       0.167  0.167  0.167
     eigenvectors (columns):
       1.000  0.000  0.000
       0.000  1.000  0.000
       0.000  0.000  1.000
     occupation matrix ns (before diag.):
       0.167  0.000  0.000
       0.000  0.167  0.000
       0.000  0.000  0.167
     ------------------------ ATOM  138 ------------------------
     Tr[ns(138)] =   1.00000
     eigenvalues:
       0.167  0.167  0.167
     eigenvectors (columns):
       1.000  0.000  0.000
       0.000  1.000  0.000
       0.000  0.000  1.000
     occupation matrix ns (before diag.):
       0.167  0.000  0.000
       0.000  0.167  0.000
       0.000  0.000  0.167
     ------------------------ ATOM  139 ------------------------
     Tr[ns(139)] =   1.00000
     eigenvalues:
       0.167  0.167  0.167
     eigenvectors (columns):
       1.000  0.000  0.000
       0.000  1.000  0.000
       0.000  0.000  1.000
     occupation matrix ns (before diag.):
       0.167  0.000  0.000
       0.000  0.167  0.000
       0.000  0.000  0.167
     ------------------------ ATOM  140 ------------------------
     Tr[ns(140)] =   1.00000
     eigenvalues:
       0.167  0.167  0.167
     eigenvectors (columns):
       1.000  0.000  0.000
       0.000  1.000  0.000
       0.000  0.000  1.000
     occupation matrix ns (before diag.):
       0.167  0.000  0.000
       0.000  0.167  0.000
       0.000  0.000  0.167
     ------------------------ ATOM  141 ------------------------
     Tr[ns(141)] =   3.00000
     eigenvalues:
       0.500  0.500  0.500
     eigenvectors (columns):
       1.000  0.000  0.000
       0.000  1.000  0.000
       0.000  0.000  1.000
     occupation matrix ns (before diag.):
       0.500  0.000  0.000
       0.000  0.500  0.000
       0.000  0.000  0.500
     ------------------------ ATOM  142 ------------------------
     Tr[ns(142)] =   3.00000
     eigenvalues:
       0.500  0.500  0.500
     eigenvectors (columns):
       1.000  0.000  0.000
       0.000  1.000  0.000
       0.000  0.000  1.000
     occupation matrix ns (before diag.):
       0.500  0.000  0.000
       0.000  0.500  0.000
       0.000  0.000  0.500
     ------------------------ ATOM  143 ------------------------
     Tr[ns(143)] =   3.00000
     eigenvalues:
       0.500  0.500  0.500
     eigenvectors (columns):
       1.000  0.000  0.000
       0.000  1.000  0.000
       0.000  0.000  1.000
     occupation matrix ns (before diag.):
       0.500  0.000  0.000
       0.000  0.500  0.000
       0.000  0.000  0.500
     ------------------------ ATOM  144 ------------------------
     Tr[ns(144)] =   3.00000
     eigenvalues:
       0.500  0.500  0.500
     eigenvectors (columns):
       1.000  0.000  0.000
       0.000  1.000  0.000
       0.000  0.000  1.000
     occupation matrix ns (before diag.):
       0.500  0.000  0.000
       0.000  0.500  0.000
       0.000  0.000  0.500
     ------------------------ ATOM  145 ------------------------
     Tr[ns(145)] =   1.00000
     eigenvalues:
       0.167  0.167  0.167
     eigenvectors (columns):
       1.000  0.000  0.000
       0.000  1.000  0.000
       0.000  0.000  1.000
     occupation matrix ns (before diag.):
       0.167  0.000  0.000
       0.000  0.167  0.000
       0.000  0.000  0.167
     ------------------------ ATOM  146 ------------------------
     Tr[ns(146)] =   1.00000
     eigenvalues:
       0.167  0.167  0.167
     eigenvectors (columns):
       1.000  0.000  0.000
       0.000  1.000  0.000
       0.000  0.000  1.000
     occupation matrix ns (before diag.):
       0.167  0.000  0.000
       0.000  0.167  0.000
       0.000  0.000  0.167
     ------------------------ ATOM  147 ------------------------
     Tr[ns(147)] =   1.00000
     eigenvalues:
       0.167  0.167  0.167
     eigenvectors (columns):
       1.000  0.000  0.000
       0.000  1.000  0.000
       0.000  0.000  1.000
     occupation matrix ns (before diag.):
       0.167  0.000  0.000
       0.000  0.167  0.000
       0.000  0.000  0.167
     ------------------------ ATOM  148 ------------------------
     Tr[ns(148)] =   1.00000
     eigenvalues:
       0.167  0.167  0.167
     eigenvectors (columns):
       1.000  0.000  0.000
       0.000  1.000  0.000
       0.000  0.000  1.000
     occupation matrix ns (before diag.):
       0.167  0.000  0.000
       0.000  0.167  0.000
       0.000  0.000  0.167
     ------------------------ ATOM  149 ------------------------
     Tr[ns(149)] =   3.00000
     eigenvalues:
       0.500  0.500  0.500
     eigenvectors (columns):
       1.000  0.000  0.000
       0.000  1.000  0.000
       0.000  0.000  1.000
     occupation matrix ns (before diag.):
       0.500  0.000  0.000
       0.000  0.500  0.000
       0.000  0.000  0.500
     ------------------------ ATOM  150 ------------------------
     Tr[ns(150)] =   3.00000
     eigenvalues:
       0.500  0.500  0.500
     eigenvectors (columns):
       1.000  0.000  0.000
       0.000  1.000  0.000
       0.000  0.000  1.000
     occupation matrix ns (before diag.):
       0.500  0.000  0.000
       0.000  0.500  0.000
       0.000  0.000  0.500
     ------------------------ ATOM  151 ------------------------
     Tr[ns(151)] =   3.00000
     eigenvalues:
       0.500  0.500  0.500
     eigenvectors (columns):
       1.000  0.000  0.000
       0.000  1.000  0.000
       0.000  0.000  1.000
     occupation matrix ns (before diag.):
       0.500  0.000  0.000
       0.000  0.500  0.000
       0.000  0.000  0.500
     ------------------------ ATOM  152 ------------------------
[...]
   -25.8928 -25.8927 -25.8927 -25.8926 -25.8924 -25.8923 -25.8917 -25.8913
   -25.8913 -25.8912 -25.8911 -25.8911 -25.8905 -25.8903 -25.8902 -25.8898
   -25.8893 -25.8890 -25.8889 -25.8889 -25.8888 -25.8886 -25.8885 -25.8884
   -25.8884 -25.8881 -25.8874 -25.8872 -25.8872 -25.8867 -25.8856 -25.8856
   -25.8851 -25.8848 -25.8830 -25.8829 -25.8828 -25.8826 -25.8825 -25.8819
   -25.8816 -25.8809 -25.8802 -25.8798 -25.8793 -25.8786 -25.8781 -25.8779
   -25.8767 -25.8763 -25.8761 -25.8758 -25.8753 -25.8752 -25.8749 -25.8745
   -25.8723 -25.8713 -25.8693 -25.8690 -25.8685 -25.8673 -25.8643 -25.8639
   -25.8633 -25.8633 -25.8632 -25.8625 -25.8512 -19.3718 -19.3718 -19.3688
   -19.3656 -19.3655 -19.3628 -19.3616 -19.3571 -19.3555 -19.3544 -19.3519
   -19.3508 -19.3496 -19.3495 -19.3483 -19.3481 -19.3473 -19.3470 -19.3467
   -19.3466 -19.3465 -19.3458 -19.3457 -19.3455 -19.3447 -19.3446 -19.3434
   -19.3423 -19.3422 -19.3420 -19.3416 -19.3415 -19.3415 -19.3414 -19.3412
   -19.3405 -19.3404 -19.3403 -19.3401 -19.3390 -19.3377 -19.3374 -19.3356
   -19.3347 -19.3323 -19.3321 -19.3317 -19.3315 -19.3313 -19.3309 -19.3297
   -19.3297 -19.3294 -19.3292 -19.3287 -19.3286 -19.3285 -19.3279 -19.3274
   -19.3270 -19.3267 -19.3252 -19.3250 -19.3243 -19.3243 -19.3236 -19.3215
   -19.3215 -19.3213 -19.3211 -19.3201 -19.3196 -19.3196 -19.3192 -19.3191
   -19.3184 -19.3182 -19.3177 -19.3173 -19.3171 -19.3169 -19.3167 -19.3163
   -19.3159 -19.3152 -19.3148 -19.3148 -19.3143 -19.3139 -19.3121 -19.3116
   -19.3110 -19.3107 -19.3105 -19.3093 -19.3084 -19.3076 -19.3070 -19.3068
   -19.3064 -19.3061 -19.3056 -19.3044 -19.3042 -19.3040 -19.3027 -19.3026
   -19.3024 -19.3017 -19.3011 -19.3010 -19.2996 -19.2978 -19.2975 -19.2947
   -19.2921 -19.2921 -19.2920 -19.2905 -19.2902 -19.2896 -19.2886 -19.2885
   -19.2876 -19.2863 -19.2844 -19.2841 -19.2822 -19.2794 -19.2787 -19.2732
   -19.2693 -19.2685 -19.2643 -19.2619  -7.2217  -7.2144  -7.2135  -7.2112
    -7.2105  -7.2097  -7.2090  -7.2077  -7.2067  -7.2041  -7.2033  -7.2026
    -7.2020  -7.2018  -7.2007  -7.1984  -7.1976  -7.1962  -7.1957  -7.1935
    -7.1924  -7.1912  -7.1896  -7.1889  -7.1883  -7.1867  -7.1866  -7.1864
    -7.1847  -7.1844  -7.1836  -7.1831  -7.1827  -7.1818  -7.1812  -7.1802
    -7.1800  -7.1791  -7.1788  -7.1784  -7.1775  -7.1765  -7.1763  -7.1757
    -7.1754  -7.1751  -7.1743  -7.1736  -7.1724  -7.1722  -7.1714  -7.1708
    -7.1704  -7.1700  -7.1700  -7.1683  -7.1677  -7.1671  -7.1668  -7.1663
    -7.1643  -7.1638  -7.1634  -7.1626  -7.1622  -7.1619  -7.1612  -7.1612
    -7.1603  -7.1600  -7.1589  -7.1587  -7.1581  -7.1572  -7.1566  -7.1564
    -7.1555  -7.1550  -7.1544  -7.1532  -7.1530  -7.1523  -7.1515  -7.1510
    -7.1500  -7.1499  -7.1489  -7.1482  -7.1480  -7.1477  -7.1472  -7.1468
    -7.1459  -7.1455  -7.1446  -7.1445  -7.1438  -7.1434  -7.1431  -7.1424
    -7.1421  -7.1417  -7.1412  -7.1409  -7.1405  -7.1401  -7.1396  -7.1389
    -7.1384  -7.1374  -7.1373  -7.1367  -7.1363  -7.1358  -7.1355  -7.1349
    -7.1341  -7.1335  -7.1334  -7.1330  -7.1329  -7.1319  -7.1316  -7.1313
    -7.1311  -7.1303  -7.1300  -7.1289  -7.1287  -7.1280  -7.1280  -7.1272
    -7.1266  -7.1263  -7.1263  -7.1257  -7.1250  -7.1244  -7.1239  -7.1235
    -7.1233  -7.1225  -7.1223  -7.1220  -7.1218  -7.1213  -7.1211  -7.1208
    -7.1204  -7.1202  -7.1197  -7.1193  -7.1188  -7.1183  -7.1181  -7.1175
    -7.1174  -7.1169  -7.1168  -7.1163  -7.1160  -7.1153  -7.1148  -7.1143
    -7.1140  -7.1134  -7.1131  -7.1130  -7.1125  -7.1122  -7.1120  -7.1117
    -7.1113  -7.1109  -7.1104  -7.1099  -7.1094  -7.1091  -7.1090  -7.1089
    -7.1081  -7.1077  -7.1073  -7.1068  -7.1061  -7.1061  -7.1059  -7.1055
    -7.1050  -7.1046  -7.1039  -7.1037  -7.1034  -7.1030  -7.1027  -7.1024
    -7.1021  -7.1017  -7.1015  -7.1012  -7.1006  -7.1003  -7.0996  -7.0993
    -7.0990  -7.0984  -7.0982  -7.0974  -7.0973  -7.0969  -7.0966  -7.0963
    -7.0957  -7.0955  -7.0954  -7.0951  -7.0945  -7.0941  -7.0939  -7.0936
    -7.0933  -7.0925  -7.0923  -7.0917  -7.0913  -7.0912  -7.0908  -7.0906
    -7.0904  -7.0899  -7.0895  -7.0889  -7.0886  -7.0877  -7.0873  -7.0872
    -7.0865  -7.0864  -7.0862  -7.0857  -7.0852  -7.0845  -7.0841  -7.0836
    -7.0831  -7.0830  -7.0826  -7.0823  -7.0821  -7.0819  -7.0814  -7.0811
    -7.0808  -7.0803  -7.0800  -7.0799  -7.0796  -7.0793  -7.0790  -7.0790
    -7.0784  -7.0780  -7.0777  -7.0770  -7.0769  -7.0765  -7.0760  -7.0757
    -7.0751  -7.0746  -7.0742  -7.0739  -7.0733  -7.0730  -7.0726  -7.0721
    -7.0718  -7.0714  -7.0709  -7.0704  -7.0699  -7.0697  -7.0690  -7.0687
    -7.0683  -7.0682  -7.0668  -7.0667  -7.0663  -7.0660  -7.0655  -7.0650
    -7.0649  -7.0645  -7.0643  -7.0635  -7.0631  -7.0628  -7.0626  -7.0623
    -7.0621  -7.0619  -7.0612  -7.0609  -7.0608  -7.0604  -7.0599  -7.0592
    -7.0590  -7.0589  -7.0581  -7.0574  -7.0573  -7.0572  -7.0569  -7.0565
    -7.0561  -7.0555  -7.0553  -7.0550  -7.0548  -7.0547  -7.0544  -7.0540
    -7.0537  -7.0533  -7.0530  -7.0526  -7.0522  -7.0518  -7.0512  -7.0508
    -7.0508  -7.0503  -7.0502  -7.0499  -7.0496  -7.0491  -7.0481  -7.0480
    -7.0477  -7.0473  -7.0472  -7.0465  -7.0462  -7.0460  -7.0457  -7.0456
    -7.0452  -7.0448  -7.0445  -7.0439  -7.0438  -7.0436  -7.0429  -7.0427
    -7.0422  -7.0418  -7.0417  -7.0407  -7.0405  -7.0402  -7.0398  -7.0398
    -7.0394  -7.0390  -7.0387  -7.0380  -7.0378  -7.0371  -7.0359  -7.0355
    -7.0349  -7.0347  -7.0341  -7.0338  -7.0335  -7.0333  -7.0330  -7.0326
    -7.0319  -7.0311  -7.0304  -7.0301  -7.0294  -7.0292  -7.0290  -7.0286
    -7.0282  -7.0277  -7.0275  -7.0273  -7.0268  -7.0259  -7.0251  -7.0246
    -7.0241  -7.0236  -7.0234  -7.0232  -7.0226  -7.0219  -7.0219  -7.0211
    -7.0210  -7.0206  -7.0205  -7.0197  -7.0195  -7.0189  -7.0184  -7.0172
    -7.0169  -7.0160  -7.0153  -7.0149  -7.0146  -7.0141  -7.0139  -7.0134
    -7.0130  -7.0123  -7.0113  -7.0103  -7.0101  -7.0088  -7.0086  -7.0084
    -7.0081  -7.0075  -7.0069  -7.0062  -7.0057  -7.0052  -7.0049  -7.0042
    -7.0040  -7.0038  -7.0034  -7.0023  -7.0017  -7.0009  -7.0007  -7.0004
    -6.9995  -6.9986  -6.9984  -6.9979  -6.9966  -6.9962  -6.9954  -6.9950
    -6.9945  -6.9943  -6.9942  -6.9932  -6.9928  -6.9927  -6.9919  -6.9906
    -6.9905  -6.9901  -6.9880  -6.9874  -6.9869  -6.9863  -6.9861  -6.9845
    -6.9825  -6.9824  -6.9816  -6.9808  -6.9798  -6.9796  -6.9788  -6.9785
    -6.9771  -6.9763  -6.9759  -6.9754  -6.9723  -6.9723  -6.9716  -6.9713
    -6.9704  -6.9702  -6.9701  -6.9692  -6.9689  -6.9681  -6.9676  -6.9661
    -6.9657  -6.9651  -6.9647  -6.9620  -6.9619  -6.9617  -6.9593  -6.9589
    -6.9574  -6.9548  -6.9541  -6.9539  -6.9533  -6.9516  -6.9487  -6.9465
    -6.9459  -6.9423  -6.9419  -6.9418  -6.9417  -6.9403  -6.9387  -6.9322
    -6.9284  -6.9262  -6.9261  -6.9254  -6.9224  -6.9219  -6.9215  -6.9212
    -6.9186  -6.9154  -6.9130  -6.9103  -6.9084  -6.9040  -6.9013  -6.8974
    -6.8968  -6.8941  -6.8909  -6.8900  -6.8829  -6.8821  -6.8524  -6.8488
    -3.6167  -3.5814  -3.5242  -3.4666  -3.3523  -3.3207  -3.2918  -3.2542
    -3.2529  -3.2127  -3.1818  -3.1709  -3.0732  -3.0310  -3.0130  -2.9947
    -2.9353  -2.9157  -2.8537  -2.8408  -2.8230  -2.8033  -2.7828  -2.7580
    -2.7530  -2.7410  -2.7234  -2.6877  -2.6680  -2.6524  -2.6314  -2.6040
    -2.5933  -2.5767  -2.5116  -2.4883  -2.4697  -2.4392  -2.4308  -2.4157
    -2.3998  -2.3830  -2.3644  -2.3541  -2.3327  -2.3162  -2.3126  -2.2812
    -2.2708  -2.2568  -2.2252  -2.1975  -2.1692  -2.1397  -2.0919  -2.0679
    -1.9743  -1.9588  -1.9382  -1.9189  -1.9063  -1.8914  -1.8772  -1.8569
    -1.8446  -1.8227  -1.7934  -1.7849  -1.7640  -1.7597  -1.7507  -1.7100
    -1.6754  -1.6592  -1.6512  -1.6354  -1.5971  -1.5699  -1.5469  -1.5116
    -1.4913  -1.4836  -1.4606  -1.4452  -1.3996  -1.3886  -1.3794  -1.3501
    -1.2992  -1.2939  -1.2849  -1.2800  -1.2435  -1.1787  -1.1574  -1.1275
    -1.1255  -1.0734  -1.0566  -1.0089  -0.9831  -0.9339  -0.9249  -0.8966
    -0.8471  -0.8148  -0.7856  -0.7403  -0.4852  -0.4384  -0.3252  -0.2782
     0.0749   0.0855   0.1003   0.1202   0.1240   0.1362   0.1434   0.1589
     0.1632   0.1778   0.1833   0.1954   0.2037   0.2105   0.2150   0.2288
     0.2338   0.2438   0.2535   0.2619   0.2670   0.2771   0.2876   0.2898
     0.3049   0.3284   0.3407   0.3580   0.3671   0.3813   0.3874   0.4053
     0.4122   0.4443   0.4702   0.4797   0.5120   0.5176   0.5543   0.5683
     0.5850   0.6182   0.6351   0.6621   0.6995   0.7083   0.7359   0.7778
     0.7958   0.8482   0.8719   0.8785   0.8903   0.9549   1.0482   1.0564
     1.2802   1.3414   1.3798   1.4017   1.4520   1.4606   1.5020   1.5180
     1.5447   1.5734   1.6348   1.6593   1.6696   1.7180   1.7321   1.7656
     1.7800   1.8022   1.8424   1.8516   1.8689   1.8905   1.9416   2.0068
     2.0440   2.0635   2.0809   2.1455   2.7785   2.8513   2.8842   2.9082
     2.9249   2.9472   2.9736   3.0105   3.0361   3.0431   3.0609   3.0668
     3.0948   3.1093   3.1475   3.1954   3.3229   3.3410   3.3565   3.3655
     3.3682   3.3751   3.3829   3.4068   3.4100   3.4234   3.4253   3.4458
     3.4692   3.4707   3.4858   3.4938   3.5106   3.5176   3.5708   3.5786
     3.6038   3.6208   3.6331   3.6359   3.6455   3.6560   3.6714   3.6859
     3.7015   3.7180   3.7335   3.7372   3.7597   3.7824   3.7966   3.8064
     3.8202   3.8471   3.8533   3.8717   3.8816   3.9052   3.9130   3.9389
     3.9506   3.9673   4.0126   4.0408   4.1792   4.2357   4.2443   4.2686
     4.3093   4.3261   4.3660   4.4098   4.4237   4.4385   4.4589   4.4647
     4.4756   4.4854   4.4986   4.5096   4.5122   4.5362   4.5381   4.5492
     4.5590   4.5807   4.5889   4.6015   4.6192   4.6305   4.6420   4.6732
     4.6932   4.7105   4.7181   4.7228   4.7421   4.7561   4.7753   4.7921
     4.8131   4.8265   4.8506   4.8555   4.8786   4.8935   4.8960   4.9076
     4.9180   4.9303   4.9451   4.9509   4.9667   4.9781   4.9845   4.9992
     5.0162   5.0406   5.0475   5.0642   5.0653   5.0798   5.0887   5.1223
     5.1239   5.1489   5.1537   5.1621   5.1784   5.1863   5.1901   5.2159
     5.2371   5.2398   5.2578   5.2671   5.2777   5.3001   5.3061   5.3156
     5.3368   5.3588   5.3725   5.3808   5.3852   5.3942   5.4239   5.4391
     5.4418   5.4679   5.4724   5.4896   5.5059   5.5308   5.5523   5.5567
     5.5654   5.5925   5.6017   5.6067   5.6449   5.6479   5.6797   5.6853
     5.7049   5.7076   5.7412   5.7574   5.7910   5.8011   5.8138   5.8379
     5.8464   5.8639   5.8798   5.9015   5.9275   5.9447   5.9725   5.9984
     6.0219   6.0513   6.0734   6.0771   6.1009   6.1139   6.1412   6.1493
     6.1741   6.1862   6.2019   6.2265   6.2389   6.2493   6.2537   6.2672
     6.2958   6.3067   6.3220   6.3531   6.3634   6.3735   6.4017   6.4246
     6.4457   6.4522   6.4614   6.4782   6.5034   6.5187   6.5571   6.5677
     6.5891   6.6221   6.6379   6.6670   6.6963   6.7016   6.7262   6.7474
     6.7784   6.7878   6.8031   6.8333   6.8628   6.8694   6.9042   6.9055
     6.9292   6.9539   7.1472   7.1539   7.3929   7.4606   7.5363   7.5955
     9.6228   9.6354   9.6432   9.6718   9.6835   9.7013   9.7861   9.8031
     9.8195   9.8421   9.8845   9.9106   9.9378   9.9706   9.9805   9.9866
     9.9936  10.0096  10.0315  10.0551  10.0573  10.0769  10.0980  10.1064
    10.1131  10.1319  10.1449  10.1592  10.1770  10.1855  10.2026  10.2348
    10.2417  10.2701  10.2913  10.3009  10.3273  10.3386  10.3473  10.3580
    10.3735  10.3885  10.3979  10.4089  10.4173  10.4236  10.4302  10.4577
    10.4660  10.4807  10.4850  10.5054  10.5177  10.5411  10.5626  10.5723
    10.5766  10.5871  10.5968  10.6004  10.6136  10.6372  10.6412  10.6661
    10.6766  10.6792  10.7051  10.7103  10.7206  10.7281  10.7350  10.7420
    10.7476  10.7552  10.7658  10.7893  10.7981  10.8104  10.8295  10.8368
    10.8415  10.8516  10.8649  10.8745  10.8906  10.9017  10.9165  10.9373
    10.9546  10.9598  10.9657  10.9807  10.9829  10.9988  11.0022  11.0264
    11.0367  11.0414  11.0509  11.0654  11.0777  11.0868  11.1069  11.1131
    11.1261  11.1617  11.1879  11.2225  11.4724  11.5130  11.5338  11.5826
    11.7028  11.7382  11.7546  11.7881  11.7927  11.8050  11.8141  11.8295
    11.8495  11.8513  11.8807  11.8971  11.9091  11.9313  11.9332  11.9463
    11.9642  11.9871  11.9908  12.0135  12.0375  12.0497  12.0730  12.0824
    12.1070  12.1264  12.1286  12.1548  12.1632  12.1746  12.1840  12.1944
    12.1997  12.2143  12.2160  12.2286  12.2371  12.2516  12.2603  12.2766
    12.4246  12.4307  12.4422  12.4598  12.4681  12.4842  12.4927  12.5036
    12.5097  12.5158  12.5238  12.5388  12.5415  12.5653  12.5870  12.5967
    12.6402  12.6776  12.6891  12.6962  12.7120  12.7222  12.7365  12.7483
    12.7564  12.7581  12.7607  12.7670  12.7775  12.7792  12.7846  12.7948
    12.7966  12.8112  12.8202  12.8258  12.8330  12.8344  12.8462  12.8578
    12.8595  12.8733  12.8816  12.8858  12.8883  12.9030  12.9194  12.9270
    12.9351  12.9399  12.9542  12.9587  12.9692  12.9904  12.9910  13.0030
    13.0175  13.0185  13.0307  13.0458  13.0540  13.0614  13.0731  13.0797
    13.0979  13.1036  13.1195  13.1438  13.1877  13.2110  13.2315  13.2464
    13.3006  13.3144  13.3337  13.3433  13.3959  13.4122  13.4254  13.4282
    13.4588  13.4633  13.4645  13.4765  13.5114  13.5189  13.5252  13.5450
    13.5562  13.5793  13.5884  13.6083  13.6182  13.6276  13.6402  13.6445
    13.6588  13.6672  13.6700  13.6811  13.6867  13.6932  13.6975  13.7051
    13.7211  13.7332  13.7406  13.7471  13.7651  13.7742  13.7872  13.7956
    13.8060  13.8149  13.8298  13.8472  13.8517  13.8588  13.8701  13.8787
    13.9004  13.9034  13.9274  13.9439  13.9599  13.9683  13.9763  13.9978
    14.0089  14.0242  14.0329  14.0685  14.1418  14.1916  14.1952  14.1995
    14.2157  14.2173  14.2418  14.2497  14.2630  14.2703  14.2770  14.2824
    14.2906  14.3022  14.3027  14.3108  14.3194  14.3304  14.3381  14.3441
    14.3464  14.3544  14.3659  14.3741  14.3783  14.3815  14.3872  14.3948
    14.3987  14.4118  14.4233  14.4289  14.4374  14.4458  14.4711  14.4905
    14.4964  14.4999  14.5028  14.5166  14.5309  14.5413  14.5524  14.5617
    14.5693  14.5764  14.5788  14.5941  14.6155  14.6306  14.6350  14.6405
    14.6549  14.6591  14.6689  14.6789  14.6862  14.7067  14.7164  14.7282
    14.7357  14.7497  14.7677  14.7852  14.7919  14.8199  14.8579  14.8918
    15.0294  15.0901  15.0940  15.0970  15.1078  15.1206  15.1288  15.1862
    15.2138  15.2632  15.2726  15.2810  15.3639  15.3849  15.4042  15.4167
    15.5183  15.5330  15.5513  15.5622  15.5843  15.5996  15.6202  15.6287
    15.6377  15.6497  15.6539  15.6643  15.6952  15.7079  15.7140  15.7444
    15.8953  15.9088  15.9337  15.9416  15.9661  15.9809  15.9896  16.0137
    16.0245  16.0254  16.0445  16.0466  16.0642  16.0702  16.0737  16.0823
    16.0934  16.1008  16.1117  16.1181  16.1274  16.1545  16.1594  16.1745
    16.1933  16.2059  16.2325  16.2518  16.2592  16.2766  16.3035  16.3056
    16.3166  16.3300  16.3423  16.3506  16.3656  16.3814  16.3889  16.4097
    16.4330  16.4466  16.4528  16.4980  16.5094  16.5294  16.5616  16.5678
    16.5928  16.5971  16.6050  16.6164  16.6423  16.6583  16.6681  16.7116
    16.7459  16.7734  16.7831  16.8104  16.8277  16.8672  16.8710  16.8806
    16.9034  16.9116  16.9248  16.9282  16.9397  16.9499  16.9600  16.9676
    16.9730  16.9876  16.9909  16.9980  17.0032  17.0192  17.0296  17.0368
    17.0620  17.0705  17.1014  17.1262  17.1892  17.1934  17.1975  17.2092
    17.2178  17.2328  17.2395  17.2465  17.2552  17.2708  17.2768  17.2897
    17.2934  17.2968  17.3045  17.3103  17.3279  17.3294  17.3433  17.3498
    17.3790  17.3939  17.4069  17.4174  17.4341  17.4490  17.4636  17.4760
    17.4841  17.5072  17.5089  17.5268  17.5307  17.5438  17.5520  17.5562
    17.5662  17.5735  17.5827  17.5945  17.6009  17.6076  17.6099  17.6157
    17.6333  17.6447  17.6510  17.6594  17.6628  17.6772  17.6877  17.7410
    17.7590  17.7729  17.7936  17.8067  17.8189  17.8341  17.8359  17.8413
    17.8526  17.8705  17.8728  17.8832  17.8896  17.9077  17.9103  17.9209
    17.9255  17.9337  17.9466  17.9558  17.9638  17.9679  17.9747  17.9973
    18.0081  18.0152  18.0229  18.0334  18.0495  18.0569  18.0652  18.0766
    18.0876  18.1013  18.1036  18.1141  18.1262  18.1464  18.1518  18.1652
    18.1660  18.1939  18.2078  18.2148  18.2851  18.3245  18.3692  18.3732
    18.3800  18.4002  18.4054  18.4261  18.4575  18.4757  18.4894  18.5083
    18.5100  18.5179  18.5364  18.5449  18.5603  18.5674  18.5725  18.5814
    18.5921  18.5990  18.6128  18.6163  18.6197  18.6252  18.6397  18.6478
    18.6588  18.6792  18.6915  18.6925  18.7145  18.7266  18.7612  18.7823
    18.7961  18.8359  18.8737  18.8869  18.9175  18.9470  18.9506  18.9692
    18.9712  18.9981  19.0139  19.0217  19.0261  19.0461  19.0670  19.0750
    19.0892  19.1024  19.1222  19.1580  19.1887  19.2106  19.2352  19.2659
    19.3001  19.3038  19.3225  19.3431  19.3595  19.3740  19.3841  19.4007
    19.4272  19.4282  19.4510  19.4642  19.4748  19.4912  19.4987  19.5046
    19.5167  19.5333  19.5406  19.5481  19.5563  19.5775  19.5836  19.5862

     highest occupied, lowest unoccupied level (ev):     7.7164    8.6884

!    total energy              =  -38619.23778077 Ry
     estimated scf accuracy    <       0.00000239 Ry

     The total energy is the sum of the following terms:
     one-electron contribution =  -20362.91233491 Ry
     hartree contribution      =   12185.13675974 Ry
     xc contribution           =   -9605.58645203 Ry
     ewald contribution        =  -20831.57569988 Ry
     Hubbard energy            =      -4.30005369 Ry

     convergence has been achieved in  12 iterations

     Writing all to output data dir ./tmp_In0.0Ga1.0As0.75Sb0.25_cube_3x3x3.4/In0.0Ga1.0As0.75Sb0.25_cube_3x3x3.4.save/ :
     XML data file, charge density, pseudopotentials, collected wavefunctions

     init_run     :    217.69s CPU    220.17s WALL (       1 calls)
     electrons    :   8083.23s CPU   8102.86s WALL (       1 calls)

     Called by init_run:
     wfcinit      :    208.06s CPU    210.17s WALL (       1 calls)
     potinit      :      2.04s CPU      2.11s WALL (       1 calls)
     hinit0       :      1.71s CPU      1.73s WALL (       1 calls)

     Called by electrons:
     c_bands      :   7820.31s CPU   7838.70s WALL (      13 calls)
     sum_band     :    258.02s CPU    258.50s WALL (      13 calls)
     v_of_rho     :      3.29s CPU      3.45s WALL (      13 calls)
     mix_rho      :      0.69s CPU      0.71s WALL (      13 calls)

     Called by c_bands:
     init_us_2    :     29.28s CPU     29.76s WALL (      28 calls)
     cegterg      :   7521.90s CPU   7538.93s WALL (      13 calls)

     Called by *egterg:
     cdiaghg      :    694.40s CPU    695.19s WALL (     101 calls)
     h_psi        :   4488.96s CPU   4498.30s WALL (     103 calls)
     g_psi        :      3.82s CPU      3.82s WALL (      89 calls)

     Called by h_psi:
     h_psi:calbec :    786.00s CPU    786.07s WALL (     103 calls)
     vloc_psi     :    638.32s CPU    639.59s WALL (     103 calls)
     add_vuspsi   :    767.75s CPU    770.43s WALL (     103 calls)
     vhpsi        :   2289.58s CPU   2289.83s WALL (     103 calls)

     General routines
     calbec       :    995.70s CPU    995.81s WALL (     220 calls)
     fft          :      3.02s CPU      3.17s WALL (     131 calls)
     ffts         :      0.18s CPU      0.18s WALL (      13 calls)
     fftw         :    640.74s CPU    642.11s WALL (  160440 calls)

     Parallel routines

     Hubbard U routines
     new_ns       :     56.19s CPU     56.20s WALL (      13 calls)
     vhpsi        :   2289.58s CPU   2289.83s WALL (     103 calls)

     PWSCF        :      2h18m CPU      2h20m WALL


   This run was terminated on:  22:47: 8  13Jun2025            

=------------------------------------------------------------------------------=
   JOB DONE.
=------------------------------------------------------------------------------=
