
     Program PWSCF v.7.3.1 starts on  7Apr2026 at  8:59:28 

     This program is part of the open-source Quantum ESPRESSO suite
     for quantum simulation of materials; please cite
         "P. Giannozzi et al., J. Phys.:Condens. Matter 21 395502 (2009);
         "P. Giannozzi et al., J. Phys.:Condens. Matter 29 465901 (2017);
         "P. Giannozzi et al., J. Chem. Phys. 152 154105 (2020);
          URL http://www.quantum-espresso.org", 
     in publications or presentations arising from this work. More details at
     http://www.quantum-espresso.org/quote

     Parallel version (MPI), running on   640 processors

     MPI processes distributed on     5 nodes
     494268 MiB available memory on the printing compute node when the environment starts

     Reading input from In1.0Ga0.0As0.75Sb0.25_cube_3x3x3.4.relax.in

     Current dimensions of program PWSCF are:
     Max number of different atomic species (ntypx) = 10
     Max number of k-points (npk) =  40000
     Max angular momentum in pseudopotentials (lmaxx) =  4

     gamma-point specific algorithms are used

     R & G space division:  proc/nbgrp/npool/nimage =     640
     WARNING: too many processors for an effective parallelization!
     wavefunctions fft division:  task group distribution
                                  #TG    x Z-proc =      16     40
     Subspace diagonalization in iterative solution of the eigenvalue problem:
     one sub-group per band group will be used
     custom distributed-memory algorithm (size of sub-group: 15* 15 procs)


     Parallelization info
     --------------------
     sticks:   dense  smooth     PW     G-vecs:    dense   smooth      PW
     Min          72      72     18                12044    12044    1498
     Max          74      74     20                12106    12106    1524
     Sum       47297   47297  11825              7736037  7736037  967067

     Using Pencil Decomposition



     bravais-lattice index     =            1
     lattice parameter (alat)  =      35.1853  a.u.
     unit-cell volume          =   43559.5242 (a.u.)^3
     number of atoms/cell      =          216
     number of atomic types    =            4
     number of electrons       =      3024.00
     number of Kohn-Sham states=         1512
     kinetic-energy cutoff     =     120.0000  Ry
     charge density cutoff     =     480.0000  Ry
     scf convergence threshold =      1.0E-05
     mixing beta               =       0.6500
     number of iterations used =            8  plain     mixing
     energy convergence thresh.=      1.0E-04
     force convergence thresh. =      4.5E-04
     press convergence thresh. =      5.0E-01
     Exchange-correlation= PBE
                           (   1   4   3   4   0   0   0)
     nstep                     =           50

     Hubbard projectors: atomic
     Hubbard parameters of DFT+U (Dudarev formulation) in eV:
     U(As-4p) =  3.2600
     U(Ga-4p) = -3.2650
     U(In-5p) = -0.9725
     U(Sb-5p) =  3.1600

     Internal variables: lda_plus_u =T, lda_plus_u_kind = 0

     celldm(1)=  35.185282  celldm(2)=   0.000000  celldm(3)=   0.000000
     celldm(4)=   0.000000  celldm(5)=   0.000000  celldm(6)=   0.000000

     crystal axes: (cart. coord. in units of alat)
               a(1) = (   1.000000   0.000000   0.000000 )  
               a(2) = (   0.000000   1.000000   0.000000 )  
               a(3) = (   0.000000   0.000000   1.000000 )  

     reciprocal axes: (cart. coord. in units 2 pi/alat)
               b(1) = (  1.000000  0.000000  0.000000 )  
               b(2) = (  0.000000  1.000000  0.000000 )  
               b(3) = (  0.000000  0.000000  1.000000 )  


     PseudoPot. # 1 for As read from file:
     /work/i254/i254/gentles/data/pseudos/As.pbe.NC-SR.standard.v0.5.UPF
     MD5 check sum: bfe1a874457ce592347346129958e7cf
     Pseudo is Norm-conserving + core correction, Zval = 15.0
     Generated using ONCVPSP code by D. R. Hamann
     Using radial grid of 1358 points,  6 beta functions with: 
                l(1) =   0
                l(2) =   0
                l(3) =   1
                l(4) =   1
                l(5) =   2
                l(6) =   2

     PseudoPot. # 2 for Ga read from file:
     /work/i254/i254/gentles/data/pseudos/Ga.pbe.NC-SR.standard.v0.5.UPF
     MD5 check sum: 2bb81bf6f0a8d9832cf3329850435ecf
     Pseudo is Norm-conserving + core correction, Zval = 13.0
     Generated using ONCVPSP code by D. R. Hamann
     Using radial grid of 1902 points,  6 beta functions with: 
                l(1) =   0
                l(2) =   0
                l(3) =   1
                l(4) =   1
                l(5) =   2
                l(6) =   2

     PseudoPot. # 3 for In read from file:
     /work/i254/i254/gentles/data/pseudos/In.pbe.NC-SR.standard.v0.5.UPF
     MD5 check sum: 835f4bf908c982ff75c88e16816a8d7f
     Pseudo is Norm-conserving + core correction, Zval = 13.0
     Generated using ONCVPSP code by D. R. Hamann
     Using radial grid of 1964 points,  6 beta functions with: 
                l(1) =   0
                l(2) =   0
                l(3) =   1
                l(4) =   1
                l(5) =   2
                l(6) =   2

     PseudoPot. # 4 for Sb read from file:
     /work/i254/i254/gentles/data/pseudos/Sb.pbe.NC-SR.standard.v0.5.UPF
     MD5 check sum: 127f69b6101c45666faeae1b5d611565
     Pseudo is Norm-conserving + core correction, Zval = 15.0
     Generated using ONCVPSP code by D. R. Hamann
     Using radial grid of 1434 points,  6 beta functions with: 
                l(1) =   0
                l(2) =   0
                l(3) =   1
                l(4) =   1
                l(5) =   2
                l(6) =   2

     atomic species   valence    mass     pseudopotential
     As               15.00    74.92160     As( 1.00)
     Ga               13.00    69.72300     Ga( 1.00)
     In               13.00   114.81800     In( 1.00)
     Sb               15.00   121.76000     Sb( 1.00)

     No symmetry found



   Cartesian axes

     site n.     atom                  positions (alat units)
         1        In     tau(   1) = (   0.0000000   0.0000000   0.0000000  )
         2        In     tau(   2) = (   0.0000000   0.1666670   0.1666670  )
         3        In     tau(   3) = (   0.1666670   0.0000000   0.1666670  )
         4        In     tau(   4) = (   0.1666670   0.1666670   0.0000000  )
         5        As     tau(   5) = (   0.0833330   0.0833330   0.0833330  )
         6        Sb     tau(   6) = (   0.0833330   0.2500000   0.2500000  )
         7        As     tau(   7) = (   0.2500000   0.0833330   0.2500000  )
         8        As     tau(   8) = (   0.2500000   0.2500000   0.0833330  )
         9        In     tau(   9) = (   0.0000000   0.0000000   0.3333330  )
        10        In     tau(  10) = (   0.0000000   0.1666670   0.5000000  )
        11        In     tau(  11) = (   0.1666670   0.0000000   0.5000000  )
        12        In     tau(  12) = (   0.1666670   0.1666670   0.3333330  )
        13        Sb     tau(  13) = (   0.0833330   0.0833330   0.4166670  )
        14        Sb     tau(  14) = (   0.0833330   0.2500000   0.5833330  )
        15        As     tau(  15) = (   0.2500000   0.0833330   0.5833330  )
        16        As     tau(  16) = (   0.2500000   0.2500000   0.4166670  )
        17        In     tau(  17) = (   0.0000000   0.0000000   0.6666670  )
        18        In     tau(  18) = (   0.0000000   0.1666670   0.8333330  )
        19        In     tau(  19) = (   0.1666670   0.0000000   0.8333330  )
        20        In     tau(  20) = (   0.1666670   0.1666670   0.6666670  )
        21        Sb     tau(  21) = (   0.0833330   0.0833330   0.7500000  )
        22        Sb     tau(  22) = (   0.0833330   0.2500000   0.9166670  )
        23        As     tau(  23) = (   0.2500000   0.0833330   0.9166670  )
        24        As     tau(  24) = (   0.2500000   0.2500000   0.7500000  )
        25        In     tau(  25) = (   0.0000000   0.3333330   0.0000000  )
        26        In     tau(  26) = (   0.0000000   0.5000000   0.1666670  )
        27        In     tau(  27) = (   0.1666670   0.3333330   0.1666670  )
        28        In     tau(  28) = (   0.1666670   0.5000000   0.0000000  )
        29        As     tau(  29) = (   0.0833330   0.4166670   0.0833330  )
        30        As     tau(  30) = (   0.0833330   0.5833330   0.2500000  )
        31        As     tau(  31) = (   0.2500000   0.4166670   0.2500000  )
        32        As     tau(  32) = (   0.2500000   0.5833330   0.0833330  )
        33        In     tau(  33) = (   0.0000000   0.3333330   0.3333330  )
        34        In     tau(  34) = (   0.0000000   0.5000000   0.5000000  )
        35        In     tau(  35) = (   0.1666670   0.3333330   0.5000000  )
        36        In     tau(  36) = (   0.1666670   0.5000000   0.3333330  )
        37        As     tau(  37) = (   0.0833330   0.4166670   0.4166670  )
        38        As     tau(  38) = (   0.0833330   0.5833330   0.5833330  )
        39        Sb     tau(  39) = (   0.2500000   0.4166670   0.5833330  )
        40        As     tau(  40) = (   0.2500000   0.5833330   0.4166670  )
        41        In     tau(  41) = (   0.0000000   0.3333330   0.6666670  )
        42        In     tau(  42) = (   0.0000000   0.5000000   0.8333330  )
        43        In     tau(  43) = (   0.1666670   0.3333330   0.8333330  )
        44        In     tau(  44) = (   0.1666670   0.5000000   0.6666670  )
        45        As     tau(  45) = (   0.0833330   0.4166670   0.7500000  )
        46        As     tau(  46) = (   0.0833330   0.5833330   0.9166670  )
        47        As     tau(  47) = (   0.2500000   0.4166670   0.9166670  )
        48        As     tau(  48) = (   0.2500000   0.5833330   0.7500000  )
        49        In     tau(  49) = (   0.0000000   0.6666670   0.0000000  )
        50        In     tau(  50) = (   0.0000000   0.8333330   0.1666670  )
        51        In     tau(  51) = (   0.1666670   0.6666670   0.1666670  )
        52        In     tau(  52) = (   0.1666670   0.8333330   0.0000000  )
        53        As     tau(  53) = (   0.0833330   0.7500000   0.0833330  )
        54        As     tau(  54) = (   0.0833330   0.9166670   0.2500000  )
        55        As     tau(  55) = (   0.2500000   0.7500000   0.2500000  )
        56        As     tau(  56) = (   0.2500000   0.9166670   0.0833330  )
        57        In     tau(  57) = (   0.0000000   0.6666670   0.3333330  )
        58        In     tau(  58) = (   0.0000000   0.8333330   0.5000000  )
        59        In     tau(  59) = (   0.1666670   0.6666670   0.5000000  )
        60        In     tau(  60) = (   0.1666670   0.8333330   0.3333330  )
        61        As     tau(  61) = (   0.0833330   0.7500000   0.4166670  )
        62        As     tau(  62) = (   0.0833330   0.9166670   0.5833330  )
        63        As     tau(  63) = (   0.2500000   0.7500000   0.5833330  )
        64        As     tau(  64) = (   0.2500000   0.9166670   0.4166670  )
        65        In     tau(  65) = (   0.0000000   0.6666670   0.6666670  )
        66        In     tau(  66) = (   0.0000000   0.8333330   0.8333330  )
        67        In     tau(  67) = (   0.1666670   0.6666670   0.8333330  )
        68        In     tau(  68) = (   0.1666670   0.8333330   0.6666670  )
        69        As     tau(  69) = (   0.0833330   0.7500000   0.7500000  )
        70        As     tau(  70) = (   0.0833330   0.9166670   0.9166670  )
        71        As     tau(  71) = (   0.2500000   0.7500000   0.9166670  )
        72        As     tau(  72) = (   0.2500000   0.9166670   0.7500000  )
        73        In     tau(  73) = (   0.3333330   0.0000000   0.0000000  )
        74        In     tau(  74) = (   0.3333330   0.1666670   0.1666670  )
        75        In     tau(  75) = (   0.5000000   0.0000000   0.1666670  )
        76        In     tau(  76) = (   0.5000000   0.1666670   0.0000000  )
        77        As     tau(  77) = (   0.4166670   0.0833330   0.0833330  )
        78        As     tau(  78) = (   0.4166670   0.2500000   0.2500000  )
        79        As     tau(  79) = (   0.5833330   0.0833330   0.2500000  )
        80        As     tau(  80) = (   0.5833330   0.2500000   0.0833330  )
        81        In     tau(  81) = (   0.3333330   0.0000000   0.3333330  )
        82        In     tau(  82) = (   0.3333330   0.1666670   0.5000000  )
        83        In     tau(  83) = (   0.5000000   0.0000000   0.5000000  )
        84        In     tau(  84) = (   0.5000000   0.1666670   0.3333330  )
        85        As     tau(  85) = (   0.4166670   0.0833330   0.4166670  )
        86        Sb     tau(  86) = (   0.4166670   0.2500000   0.5833330  )
        87        As     tau(  87) = (   0.5833330   0.0833330   0.5833330  )
        88        As     tau(  88) = (   0.5833330   0.2500000   0.4166670  )
        89        In     tau(  89) = (   0.3333330   0.0000000   0.6666670  )
        90        In     tau(  90) = (   0.3333330   0.1666670   0.8333330  )
        91        In     tau(  91) = (   0.5000000   0.0000000   0.8333330  )
        92        In     tau(  92) = (   0.5000000   0.1666670   0.6666670  )
        93        As     tau(  93) = (   0.4166670   0.0833330   0.7500000  )
        94        As     tau(  94) = (   0.4166670   0.2500000   0.9166670  )
        95        As     tau(  95) = (   0.5833330   0.0833330   0.9166670  )
        96        Sb     tau(  96) = (   0.5833330   0.2500000   0.7500000  )
        97        In     tau(  97) = (   0.3333330   0.3333330   0.0000000  )
        98        In     tau(  98) = (   0.3333330   0.5000000   0.1666670  )
        99        In     tau(  99) = (   0.5000000   0.3333330   0.1666670  )
       100        In     tau( 100) = (   0.5000000   0.5000000   0.0000000  )
       101        As     tau( 101) = (   0.4166670   0.4166670   0.0833330  )
       102        Sb     tau( 102) = (   0.4166670   0.5833330   0.2500000  )
       103        As     tau( 103) = (   0.5833330   0.4166670   0.2500000  )
       104        Sb     tau( 104) = (   0.5833330   0.5833330   0.0833330  )
       105        In     tau( 105) = (   0.3333330   0.3333330   0.3333330  )
       106        In     tau( 106) = (   0.3333330   0.5000000   0.5000000  )
       107        In     tau( 107) = (   0.5000000   0.3333330   0.5000000  )
       108        In     tau( 108) = (   0.5000000   0.5000000   0.3333330  )
       109        As     tau( 109) = (   0.4166670   0.4166670   0.4166670  )
       110        As     tau( 110) = (   0.4166670   0.5833330   0.5833330  )
       111        As     tau( 111) = (   0.5833330   0.4166670   0.5833330  )
       112        As     tau( 112) = (   0.5833330   0.5833330   0.4166670  )
       113        In     tau( 113) = (   0.3333330   0.3333330   0.6666670  )
       114        In     tau( 114) = (   0.3333330   0.5000000   0.8333330  )
       115        In     tau( 115) = (   0.5000000   0.3333330   0.8333330  )
       116        In     tau( 116) = (   0.5000000   0.5000000   0.6666670  )
       117        As     tau( 117) = (   0.4166670   0.4166670   0.7500000  )
       118        As     tau( 118) = (   0.4166670   0.5833330   0.9166670  )
       119        Sb     tau( 119) = (   0.5833330   0.4166670   0.9166670  )
       120        Sb     tau( 120) = (   0.5833330   0.5833330   0.7500000  )
       121        In     tau( 121) = (   0.3333330   0.6666670   0.0000000  )
       122        In     tau( 122) = (   0.3333330   0.8333330   0.1666670  )
       123        In     tau( 123) = (   0.5000000   0.6666670   0.1666670  )
       124        In     tau( 124) = (   0.5000000   0.8333330   0.0000000  )
       125        As     tau( 125) = (   0.4166670   0.7500000   0.0833330  )
       126        Sb     tau( 126) = (   0.4166670   0.9166670   0.2500000  )
       127        As     tau( 127) = (   0.5833330   0.7500000   0.2500000  )
       128        As     tau( 128) = (   0.5833330   0.9166670   0.0833330  )
       129        In     tau( 129) = (   0.3333330   0.6666670   0.3333330  )
       130        In     tau( 130) = (   0.3333330   0.8333330   0.5000000  )
       131        In     tau( 131) = (   0.5000000   0.6666670   0.5000000  )
       132        In     tau( 132) = (   0.5000000   0.8333330   0.3333330  )
       133        Sb     tau( 133) = (   0.4166670   0.7500000   0.4166670  )
       134        As     tau( 134) = (   0.4166670   0.9166670   0.5833330  )
       135        As     tau( 135) = (   0.5833330   0.7500000   0.5833330  )
       136        Sb     tau( 136) = (   0.5833330   0.9166670   0.4166670  )
       137        In     tau( 137) = (   0.3333330   0.6666670   0.6666670  )
       138        In     tau( 138) = (   0.3333330   0.8333330   0.8333330  )
       139        In     tau( 139) = (   0.5000000   0.6666670   0.8333330  )
       140        In     tau( 140) = (   0.5000000   0.8333330   0.6666670  )
       141        Sb     tau( 141) = (   0.4166670   0.7500000   0.7500000  )
       142        As     tau( 142) = (   0.4166670   0.9166670   0.9166670  )
       143        Sb     tau( 143) = (   0.5833330   0.7500000   0.9166670  )
       144        As     tau( 144) = (   0.5833330   0.9166670   0.7500000  )
       145        In     tau( 145) = (   0.6666670   0.0000000   0.0000000  )
       146        In     tau( 146) = (   0.6666670   0.1666670   0.1666670  )
       147        In     tau( 147) = (   0.8333330   0.0000000   0.1666670  )
       148        In     tau( 148) = (   0.8333330   0.1666670   0.0000000  )
       149        As     tau( 149) = (   0.7500000   0.0833330   0.0833330  )
       150        As     tau( 150) = (   0.7500000   0.2500000   0.2500000  )
       151        As     tau( 151) = (   0.9166670   0.0833330   0.2500000  )
       152        As     tau( 152) = (   0.9166670   0.2500000   0.0833330  )
       153        In     tau( 153) = (   0.6666670   0.0000000   0.3333330  )
       154        In     tau( 154) = (   0.6666670   0.1666670   0.5000000  )
       155        In     tau( 155) = (   0.8333330   0.0000000   0.5000000  )
       156        In     tau( 156) = (   0.8333330   0.1666670   0.3333330  )
       157        As     tau( 157) = (   0.7500000   0.0833330   0.4166670  )
       158        As     tau( 158) = (   0.7500000   0.2500000   0.5833330  )
       159        As     tau( 159) = (   0.9166670   0.0833330   0.5833330  )
       160        As     tau( 160) = (   0.9166670   0.2500000   0.4166670  )
       161        In     tau( 161) = (   0.6666670   0.0000000   0.6666670  )
       162        In     tau( 162) = (   0.6666670   0.1666670   0.8333330  )
       163        In     tau( 163) = (   0.8333330   0.0000000   0.8333330  )
       164        In     tau( 164) = (   0.8333330   0.1666670   0.6666670  )
       165        As     tau( 165) = (   0.7500000   0.0833330   0.7500000  )
       166        Sb     tau( 166) = (   0.7500000   0.2500000   0.9166670  )
       167        As     tau( 167) = (   0.9166670   0.0833330   0.9166670  )
       168        Sb     tau( 168) = (   0.9166670   0.2500000   0.7500000  )
       169        In     tau( 169) = (   0.6666670   0.3333330   0.0000000  )
       170        In     tau( 170) = (   0.6666670   0.5000000   0.1666670  )
       171        In     tau( 171) = (   0.8333330   0.3333330   0.1666670  )
       172        In     tau( 172) = (   0.8333330   0.5000000   0.0000000  )
       173        Sb     tau( 173) = (   0.7500000   0.4166670   0.0833330  )
       174        Sb     tau( 174) = (   0.7500000   0.5833330   0.2500000  )
       175        As     tau( 175) = (   0.9166670   0.4166670   0.2500000  )
       176        Sb     tau( 176) = (   0.9166670   0.5833330   0.0833330  )
       177        In     tau( 177) = (   0.6666670   0.3333330   0.3333330  )
       178        In     tau( 178) = (   0.6666670   0.5000000   0.5000000  )
       179        In     tau( 179) = (   0.8333330   0.3333330   0.5000000  )
       180        In     tau( 180) = (   0.8333330   0.5000000   0.3333330  )
       181        As     tau( 181) = (   0.7500000   0.4166670   0.4166670  )
       182        As     tau( 182) = (   0.7500000   0.5833330   0.5833330  )
       183        Sb     tau( 183) = (   0.9166670   0.4166670   0.5833330  )
       184        Sb     tau( 184) = (   0.9166670   0.5833330   0.4166670  )
       185        In     tau( 185) = (   0.6666670   0.3333330   0.6666670  )
       186        In     tau( 186) = (   0.6666670   0.5000000   0.8333330  )
       187        In     tau( 187) = (   0.8333330   0.3333330   0.8333330  )
       188        In     tau( 188) = (   0.8333330   0.5000000   0.6666670  )
       189        As     tau( 189) = (   0.7500000   0.4166670   0.7500000  )
       190        As     tau( 190) = (   0.7500000   0.5833330   0.9166670  )
       191        As     tau( 191) = (   0.9166670   0.4166670   0.9166670  )
       192        As     tau( 192) = (   0.9166670   0.5833330   0.7500000  )
       193        In     tau( 193) = (   0.6666670   0.6666670   0.0000000  )
       194        In     tau( 194) = (   0.6666670   0.8333330   0.1666670  )
       195        In     tau( 195) = (   0.8333330   0.6666670   0.1666670  )
       196        In     tau( 196) = (   0.8333330   0.8333330   0.0000000  )
       197        As     tau( 197) = (   0.7500000   0.7500000   0.0833330  )
       198        As     tau( 198) = (   0.7500000   0.9166670   0.2500000  )
       199        As     tau( 199) = (   0.9166670   0.7500000   0.2500000  )
       200        As     tau( 200) = (   0.9166670   0.9166670   0.0833330  )
       201        In     tau( 201) = (   0.6666670   0.6666670   0.3333330  )
       202        In     tau( 202) = (   0.6666670   0.8333330   0.5000000  )
       203        In     tau( 203) = (   0.8333330   0.6666670   0.5000000  )
       204        In     tau( 204) = (   0.8333330   0.8333330   0.3333330  )
       205        As     tau( 205) = (   0.7500000   0.7500000   0.4166670  )
       206        As     tau( 206) = (   0.7500000   0.9166670   0.5833330  )
       207        As     tau( 207) = (   0.9166670   0.7500000   0.5833330  )
       208        Sb     tau( 208) = (   0.9166670   0.9166670   0.4166670  )
       209        In     tau( 209) = (   0.6666670   0.6666670   0.6666670  )
       210        In     tau( 210) = (   0.6666670   0.8333330   0.8333330  )
       211        In     tau( 211) = (   0.8333330   0.6666670   0.8333330  )
       212        In     tau( 212) = (   0.8333330   0.8333330   0.6666670  )
       213        Sb     tau( 213) = (   0.7500000   0.7500000   0.7500000  )
       214        As     tau( 214) = (   0.7500000   0.9166670   0.9166670  )
       215        Sb     tau( 215) = (   0.9166670   0.7500000   0.9166670  )
       216        As     tau( 216) = (   0.9166670   0.9166670   0.7500000  )

     number of k points=     1
                       cart. coord. in units 2pi/alat
        k(    1) = (   0.0000000   0.0000000   0.0000000), wk =   2.0000000

     Dense  grid:  3868019 G-vectors     FFT dimensions: ( 250, 250, 250)

     Estimated max dynamical RAM per process >     222.40 MB

     Estimated total dynamical RAM >     139.00 GB

     Initial potential from superposition of free atoms

     starting charge    3023.5448, renormalised to    3024.0000

     STARTING HUBBARD OCCUPATIONS:

     =================== HUBBARD OCCUPATIONS ===================
     ------------------------ ATOM    1 ------------------------
     Tr[ns(  1)] =   1.00000
     eigenvalues:
       0.167  0.167  0.167
     eigenvectors (columns):
       1.000  0.000  0.000
       0.000  1.000  0.000
       0.000  0.000  1.000
     occupation matrix ns (before diag.):
       0.167  0.000  0.000
       0.000  0.167  0.000
       0.000  0.000  0.167
     ------------------------ ATOM    2 ------------------------
     Tr[ns(  2)] =   1.00000
     eigenvalues:
       0.167  0.167  0.167
     eigenvectors (columns):
       1.000  0.000  0.000
       0.000  1.000  0.000
       0.000  0.000  1.000
     occupation matrix ns (before diag.):
       0.167  0.000  0.000
       0.000  0.167  0.000
       0.000  0.000  0.167
     ------------------------ ATOM    3 ------------------------
     Tr[ns(  3)] =   1.00000
     eigenvalues:
       0.167  0.167  0.167
     eigenvectors (columns):
       1.000  0.000  0.000
       0.000  1.000  0.000
       0.000  0.000  1.000
     occupation matrix ns (before diag.):
       0.167  0.000  0.000
       0.000  0.167  0.000
       0.000  0.000  0.167
     ------------------------ ATOM    4 ------------------------
     Tr[ns(  4)] =   1.00000
     eigenvalues:
       0.167  0.167  0.167
     eigenvectors (columns):
       1.000  0.000  0.000
       0.000  1.000  0.000
       0.000  0.000  1.000
     occupation matrix ns (before diag.):
       0.167  0.000  0.000
       0.000  0.167  0.000
       0.000  0.000  0.167
     ------------------------ ATOM    5 ------------------------
     Tr[ns(  5)] =   3.00000
     eigenvalues:
       0.500  0.500  0.500
     eigenvectors (columns):
       1.000  0.000  0.000
       0.000  1.000  0.000
       0.000  0.000  1.000
     occupation matrix ns (before diag.):
       0.500  0.000  0.000
       0.000  0.500  0.000
       0.000  0.000  0.500
     ------------------------ ATOM    6 ------------------------
     Tr[ns(  6)] =   3.00000
     eigenvalues:
       0.500  0.500  0.500
     eigenvectors (columns):
       1.000  0.000  0.000
       0.000  1.000  0.000
       0.000  0.000  1.000
     occupation matrix ns (before diag.):
       0.500  0.000  0.000
       0.000  0.500  0.000
       0.000  0.000  0.500
     ------------------------ ATOM    7 ------------------------
     Tr[ns(  7)] =   3.00000
     eigenvalues:
       0.500  0.500  0.500
     eigenvectors (columns):
       1.000  0.000  0.000
       0.000  1.000  0.000
       0.000  0.000  1.000
     occupation matrix ns (before diag.):
       0.500  0.000  0.000
       0.000  0.500  0.000
       0.000  0.000  0.500
     ------------------------ ATOM    8 ------------------------
     Tr[ns(  8)] =   3.00000
     eigenvalues:
       0.500  0.500  0.500
     eigenvectors (columns):
       1.000  0.000  0.000
       0.000  1.000  0.000
       0.000  0.000  1.000
     occupation matrix ns (before diag.):
       0.500  0.000  0.000
       0.000  0.500  0.000
       0.000  0.000  0.500
     ------------------------ ATOM    9 ------------------------
     Tr[ns(  9)] =   1.00000
     eigenvalues:
       0.167  0.167  0.167
     eigenvectors (columns):
       1.000  0.000  0.000
       0.000  1.000  0.000
       0.000  0.000  1.000
     occupation matrix ns (before diag.):
       0.167  0.000  0.000
       0.000  0.167  0.000
       0.000  0.000  0.167
     ------------------------ ATOM   10 ------------------------
     Tr[ns( 10)] =   1.00000
     eigenvalues:
       0.167  0.167  0.167
     eigenvectors (columns):
       1.000  0.000  0.000
       0.000  1.000  0.000
       0.000  0.000  1.000
     occupation matrix ns (before diag.):
       0.167  0.000  0.000
       0.000  0.167  0.000
       0.000  0.000  0.167
     ------------------------ ATOM   11 ------------------------
     Tr[ns( 11)] =   1.00000
     eigenvalues:
       0.167  0.167  0.167
     eigenvectors (columns):
       1.000  0.000  0.000
       0.000  1.000  0.000
       0.000  0.000  1.000
     occupation matrix ns (before diag.):
       0.167  0.000  0.000
       0.000  0.167  0.000
       0.000  0.000  0.167
     ------------------------ ATOM   12 ------------------------
     Tr[ns( 12)] =   1.00000
     eigenvalues:
       0.167  0.167  0.167
     eigenvectors (columns):
       1.000  0.000  0.000
       0.000  1.000  0.000
       0.000  0.000  1.000
     occupation matrix ns (before diag.):
       0.167  0.000  0.000
       0.000  0.167  0.000
       0.000  0.000  0.167
     ------------------------ ATOM   13 ------------------------
     Tr[ns( 13)] =   3.00000
     eigenvalues:
       0.500  0.500  0.500
     eigenvectors (columns):
       1.000  0.000  0.000
       0.000  1.000  0.000
       0.000  0.000  1.000
     occupation matrix ns (before diag.):
       0.500  0.000  0.000
       0.000  0.500  0.000
       0.000  0.000  0.500
     ------------------------ ATOM   14 ------------------------
     Tr[ns( 14)] =   3.00000
     eigenvalues:
       0.500  0.500  0.500
     eigenvectors (columns):
       1.000  0.000  0.000
       0.000  1.000  0.000
       0.000  0.000  1.000
     occupation matrix ns (before diag.):
       0.500  0.000  0.000
       0.000  0.500  0.000
       0.000  0.000  0.500
     ------------------------ ATOM   15 ------------------------
     Tr[ns( 15)] =   3.00000
     eigenvalues:
       0.500  0.500  0.500
     eigenvectors (columns):
       1.000  0.000  0.000
       0.000  1.000  0.000
       0.000  0.000  1.000
     occupation matrix ns (before diag.):
       0.500  0.000  0.000
       0.000  0.500  0.000
       0.000  0.000  0.500
     ------------------------ ATOM   16 ------------------------
     Tr[ns( 16)] =   3.00000
     eigenvalues:
       0.500  0.500  0.500
     eigenvectors (columns):
       1.000  0.000  0.000
       0.000  1.000  0.000
       0.000  0.000  1.000
     occupation matrix ns (before diag.):
       0.500  0.000  0.000
       0.000  0.500  0.000
       0.000  0.000  0.500
     ------------------------ ATOM   17 ------------------------
     Tr[ns( 17)] =   1.00000
     eigenvalues:
       0.167  0.167  0.167
     eigenvectors (columns):
       1.000  0.000  0.000
       0.000  1.000  0.000
       0.000  0.000  1.000
     occupation matrix ns (before diag.):
       0.167  0.000  0.000
       0.000  0.167  0.000
       0.000  0.000  0.167
     ------------------------ ATOM   18 ------------------------
     Tr[ns( 18)] =   1.00000
     eigenvalues:
       0.167  0.167  0.167
     eigenvectors (columns):
       1.000  0.000  0.000
       0.000  1.000  0.000
       0.000  0.000  1.000
     occupation matrix ns (before diag.):
       0.167  0.000  0.000
       0.000  0.167  0.000
       0.000  0.000  0.167
     ------------------------ ATOM   19 ------------------------
     Tr[ns( 19)] =   1.00000
     eigenvalues:
       0.167  0.167  0.167
     eigenvectors (columns):
       1.000  0.000  0.000
       0.000  1.000  0.000
       0.000  0.000  1.000
     occupation matrix ns (before diag.):
       0.167  0.000  0.000
       0.000  0.167  0.000
       0.000  0.000  0.167
     ------------------------ ATOM   20 ------------------------
     Tr[ns( 20)] =   1.00000
     eigenvalues:
       0.167  0.167  0.167
     eigenvectors (columns):
       1.000  0.000  0.000
       0.000  1.000  0.000
       0.000  0.000  1.000
     occupation matrix ns (before diag.):
       0.167  0.000  0.000
       0.000  0.167  0.000
       0.000  0.000  0.167
     ------------------------ ATOM   21 ------------------------
     Tr[ns( 21)] =   3.00000
     eigenvalues:
       0.500  0.500  0.500
     eigenvectors (columns):
       1.000  0.000  0.000
       0.000  1.000  0.000
       0.000  0.000  1.000
     occupation matrix ns (before diag.):
       0.500  0.000  0.000
       0.000  0.500  0.000
       0.000  0.000  0.500
     ------------------------ ATOM   22 ------------------------
     Tr[ns( 22)] =   3.00000
     eigenvalues:
       0.500  0.500  0.500
     eigenvectors (columns):
       1.000  0.000  0.000
       0.000  1.000  0.000
       0.000  0.000  1.000
     occupation matrix ns (before diag.):
       0.500  0.000  0.000
       0.000  0.500  0.000
       0.000  0.000  0.500
     ------------------------ ATOM   23 ------------------------
     Tr[ns( 23)] =   3.00000
     eigenvalues:
       0.500  0.500  0.500
     eigenvectors (columns):
       1.000  0.000  0.000
       0.000  1.000  0.000
       0.000  0.000  1.000
     occupation matrix ns (before diag.):
       0.500  0.000  0.000
       0.000  0.500  0.000
       0.000  0.000  0.500
     ------------------------ ATOM   24 ------------------------
     Tr[ns( 24)] =   3.00000
     eigenvalues:
       0.500  0.500  0.500
     eigenvectors (columns):
       1.000  0.000  0.000
       0.000  1.000  0.000
       0.000  0.000  1.000
     occupation matrix ns (before diag.):
       0.500  0.000  0.000
       0.000  0.500  0.000
       0.000  0.000  0.500
     ------------------------ ATOM   25 ------------------------
     Tr[ns( 25)] =   1.00000
     eigenvalues:
       0.167  0.167  0.167
     eigenvectors (columns):
       1.000  0.000  0.000
       0.000  1.000  0.000
       0.000  0.000  1.000
     occupation matrix ns (before diag.):
       0.167  0.000  0.000
       0.000  0.167  0.000
       0.000  0.000  0.167
     ------------------------ ATOM   26 ------------------------
     Tr[ns( 26)] =   1.00000
     eigenvalues:
       0.167  0.167  0.167
     eigenvectors (columns):
       1.000  0.000  0.000
       0.000  1.000  0.000
       0.000  0.000  1.000
     occupation matrix ns (before diag.):
       0.167  0.000  0.000
       0.000  0.167  0.000
       0.000  0.000  0.167
     ------------------------ ATOM   27 ------------------------
     Tr[ns( 27)] =   1.00000
     eigenvalues:
       0.167  0.167  0.167
     eigenvectors (columns):
       1.000  0.000  0.000
       0.000  1.000  0.000
       0.000  0.000  1.000
     occupation matrix ns (before diag.):
       0.167  0.000  0.000
       0.000  0.167  0.000
       0.000  0.000  0.167
     ------------------------ ATOM   28 ------------------------
     Tr[ns( 28)] =   1.00000
     eigenvalues:
       0.167  0.167  0.167
     eigenvectors (columns):
       1.000  0.000  0.000
       0.000  1.000  0.000
       0.000  0.000  1.000
     occupation matrix ns (before diag.):
       0.167  0.000  0.000
       0.000  0.167  0.000
       0.000  0.000  0.167
     ------------------------ ATOM   29 ------------------------
     Tr[ns( 29)] =   3.00000
     eigenvalues:
       0.500  0.500  0.500
     eigenvectors (columns):
       1.000  0.000  0.000
       0.000  1.000  0.000
       0.000  0.000  1.000
     occupation matrix ns (before diag.):
       0.500  0.000  0.000
       0.000  0.500  0.000
       0.000  0.000  0.500
     ------------------------ ATOM   30 ------------------------
     Tr[ns( 30)] =   3.00000
     eigenvalues:
       0.500  0.500  0.500
     eigenvectors (columns):
       1.000  0.000  0.000
       0.000  1.000  0.000
       0.000  0.000  1.000
     occupation matrix ns (before diag.):
       0.500  0.000  0.000
       0.000  0.500  0.000
       0.000  0.000  0.500
     ------------------------ ATOM   31 ------------------------
     Tr[ns( 31)] =   3.00000
     eigenvalues:
       0.500  0.500  0.500
     eigenvectors (columns):
       1.000  0.000  0.000
       0.000  1.000  0.000
       0.000  0.000  1.000
     occupation matrix ns (before diag.):
       0.500  0.000  0.000
       0.000  0.500  0.000
       0.000  0.000  0.500
     ------------------------ ATOM   32 ------------------------
     Tr[ns( 32)] =   3.00000
     eigenvalues:
       0.500  0.500  0.500
     eigenvectors (columns):
       1.000  0.000  0.000
       0.000  1.000  0.000
       0.000  0.000  1.000
     occupation matrix ns (before diag.):
       0.500  0.000  0.000
       0.000  0.500  0.000
       0.000  0.000  0.500
     ------------------------ ATOM   33 ------------------------
     Tr[ns( 33)] =   1.00000
     eigenvalues:
       0.167  0.167  0.167
     eigenvectors (columns):
       1.000  0.000  0.000
       0.000  1.000  0.000
       0.000  0.000  1.000
     occupation matrix ns (before diag.):
       0.167  0.000  0.000
       0.000  0.167  0.000
       0.000  0.000  0.167
     ------------------------ ATOM   34 ------------------------
     Tr[ns( 34)] =   1.00000
     eigenvalues:
       0.167  0.167  0.167
     eigenvectors (columns):
       1.000  0.000  0.000
       0.000  1.000  0.000
       0.000  0.000  1.000
     occupation matrix ns (before diag.):
       0.167  0.000  0.000
       0.000  0.167  0.000
       0.000  0.000  0.167
     ------------------------ ATOM   35 ------------------------
     Tr[ns( 35)] =   1.00000
     eigenvalues:
       0.167  0.167  0.167
     eigenvectors (columns):
       1.000  0.000  0.000
       0.000  1.000  0.000
       0.000  0.000  1.000
     occupation matrix ns (before diag.):
       0.167  0.000  0.000
       0.000  0.167  0.000
       0.000  0.000  0.167
     ------------------------ ATOM   36 ------------------------
     Tr[ns( 36)] =   1.00000
     eigenvalues:
       0.167  0.167  0.167
     eigenvectors (columns):
       1.000  0.000  0.000
       0.000  1.000  0.000
       0.000  0.000  1.000
     occupation matrix ns (before diag.):
       0.167  0.000  0.000
       0.000  0.167  0.000
       0.000  0.000  0.167
     ------------------------ ATOM   37 ------------------------
     Tr[ns( 37)] =   3.00000
     eigenvalues:
       0.500  0.500  0.500
     eigenvectors (columns):
       1.000  0.000  0.000
       0.000  1.000  0.000
       0.000  0.000  1.000
     occupation matrix ns (before diag.):
       0.500  0.000  0.000
       0.000  0.500  0.000
       0.000  0.000  0.500
     ------------------------ ATOM   38 ------------------------
     Tr[ns( 38)] =   3.00000
     eigenvalues:
       0.500  0.500  0.500
     eigenvectors (columns):
       1.000  0.000  0.000
       0.000  1.000  0.000
       0.000  0.000  1.000
     occupation matrix ns (before diag.):
       0.500  0.000  0.000
       0.000  0.500  0.000
       0.000  0.000  0.500
     ------------------------ ATOM   39 ------------------------
     Tr[ns( 39)] =   3.00000
     eigenvalues:
       0.500  0.500  0.500
     eigenvectors (columns):
       1.000  0.000  0.000
       0.000  1.000  0.000
       0.000  0.000  1.000
     occupation matrix ns (before diag.):
       0.500  0.000  0.000
       0.000  0.500  0.000
       0.000  0.000  0.500
     ------------------------ ATOM   40 ------------------------
     Tr[ns( 40)] =   3.00000
     eigenvalues:
       0.500  0.500  0.500
     eigenvectors (columns):
       1.000  0.000  0.000
       0.000  1.000  0.000
       0.000  0.000  1.000
     occupation matrix ns (before diag.):
       0.500  0.000  0.000
       0.000  0.500  0.000
       0.000  0.000  0.500
     ------------------------ ATOM   41 ------------------------
     Tr[ns( 41)] =   1.00000
     eigenvalues:
       0.167  0.167  0.167
     eigenvectors (columns):
       1.000  0.000  0.000
       0.000  1.000  0.000
       0.000  0.000  1.000
     occupation matrix ns (before diag.):
       0.167  0.000  0.000
       0.000  0.167  0.000
       0.000  0.000  0.167
     ------------------------ ATOM   42 ------------------------
     Tr[ns( 42)] =   1.00000
     eigenvalues:
       0.167  0.167  0.167
     eigenvectors (columns):
       1.000  0.000  0.000
       0.000  1.000  0.000
       0.000  0.000  1.000
     occupation matrix ns (before diag.):
       0.167  0.000  0.000
       0.000  0.167  0.000
       0.000  0.000  0.167
     ------------------------ ATOM   43 ------------------------
     Tr[ns( 43)] =   1.00000
     eigenvalues:
       0.167  0.167  0.167
     eigenvectors (columns):
       1.000  0.000  0.000
       0.000  1.000  0.000
       0.000  0.000  1.000
     occupation matrix ns (before diag.):
       0.167  0.000  0.000
       0.000  0.167  0.000
       0.000  0.000  0.167
     ------------------------ ATOM   44 ------------------------
     Tr[ns( 44)] =   1.00000
     eigenvalues:
       0.167  0.167  0.167
     eigenvectors (columns):
       1.000  0.000  0.000
       0.000  1.000  0.000
       0.000  0.000  1.000
     occupation matrix ns (before diag.):
       0.167  0.000  0.000
       0.000  0.167  0.000
       0.000  0.000  0.167
     ------------------------ ATOM   45 ------------------------
     Tr[ns( 45)] =   3.00000
     eigenvalues:
       0.500  0.500  0.500
     eigenvectors (columns):
       1.000  0.000  0.000
       0.000  1.000  0.000
       0.000  0.000  1.000
     occupation matrix ns (before diag.):
       0.500  0.000  0.000
       0.000  0.500  0.000
       0.000  0.000  0.500
     ------------------------ ATOM   46 ------------------------
     Tr[ns( 46)] =   3.00000
     eigenvalues:
       0.500  0.500  0.500
     eigenvectors (columns):
       1.000  0.000  0.000
       0.000  1.000  0.000
       0.000  0.000  1.000
     occupation matrix ns (before diag.):
       0.500  0.000  0.000
       0.000  0.500  0.000
       0.000  0.000  0.500
     ------------------------ ATOM   47 ------------------------
     Tr[ns( 47)] =   3.00000
     eigenvalues:
       0.500  0.500  0.500
     eigenvectors (columns):
       1.000  0.000  0.000
       0.000  1.000  0.000
       0.000  0.000  1.000
     occupation matrix ns (before diag.):
       0.500  0.000  0.000
       0.000  0.500  0.000
       0.000  0.000  0.500
     ------------------------ ATOM   48 ------------------------
     Tr[ns( 48)] =   3.00000
     eigenvalues:
       0.500  0.500  0.500
     eigenvectors (columns):
       1.000  0.000  0.000
       0.000  1.000  0.000
       0.000  0.000  1.000
     occupation matrix ns (before diag.):
       0.500  0.000  0.000
       0.000  0.500  0.000
       0.000  0.000  0.500
     ------------------------ ATOM   49 ------------------------
     Tr[ns( 49)] =   1.00000
     eigenvalues:
       0.167  0.167  0.167
     eigenvectors (columns):
       1.000  0.000  0.000
       0.000  1.000  0.000
       0.000  0.000  1.000
     occupation matrix ns (before diag.):
       0.167  0.000  0.000
       0.000  0.167  0.000
       0.000  0.000  0.167
     ------------------------ ATOM   50 ------------------------
     Tr[ns( 50)] =   1.00000
     eigenvalues:
       0.167  0.167  0.167
     eigenvectors (columns):
       1.000  0.000  0.000
       0.000  1.000  0.000
       0.000  0.000  1.000
     occupation matrix ns (before diag.):
       0.167  0.000  0.000
       0.000  0.167  0.000
       0.000  0.000  0.167
     ------------------------ ATOM   51 ------------------------
     Tr[ns( 51)] =   1.00000
     eigenvalues:
       0.167  0.167  0.167
     eigenvectors (columns):
       1.000  0.000  0.000
       0.000  1.000  0.000
       0.000  0.000  1.000
     occupation matrix ns (before diag.):
       0.167  0.000  0.000
       0.000  0.167  0.000
       0.000  0.000  0.167
     ------------------------ ATOM   52 ------------------------
     Tr[ns( 52)] =   1.00000
     eigenvalues:
       0.167  0.167  0.167
     eigenvectors (columns):
       1.000  0.000  0.000
       0.000  1.000  0.000
       0.000  0.000  1.000
     occupation matrix ns (before diag.):
       0.167  0.000  0.000
       0.000  0.167  0.000
       0.000  0.000  0.167
     ------------------------ ATOM   53 ------------------------
     Tr[ns( 53)] =   3.00000
     eigenvalues:
       0.500  0.500  0.500
     eigenvectors (columns):
       1.000  0.000  0.000
       0.000  1.000  0.000
       0.000  0.000  1.000
     occupation matrix ns (before diag.):
       0.500  0.000  0.000
       0.000  0.500  0.000
       0.000  0.000  0.500
     ------------------------ ATOM   54 ------------------------
     Tr[ns( 54)] =   3.00000
     eigenvalues:
       0.500  0.500  0.500
     eigenvectors (columns):
       1.000  0.000  0.000
       0.000  1.000  0.000
       0.000  0.000  1.000
     occupation matrix ns (before diag.):
       0.500  0.000  0.000
       0.000  0.500  0.000
       0.000  0.000  0.500
     ------------------------ ATOM   55 ------------------------
     Tr[ns( 55)] =   3.00000
     eigenvalues:
       0.500  0.500  0.500
     eigenvectors (columns):
       1.000  0.000  0.000
       0.000  1.000  0.000
       0.000  0.000  1.000
     occupation matrix ns (before diag.):
       0.500  0.000  0.000
       0.000  0.500  0.000
       0.000  0.000  0.500
     ------------------------ ATOM   56 ------------------------
     Tr[ns( 56)] =   3.00000
     eigenvalues:
       0.500  0.500  0.500
     eigenvectors (columns):
       1.000  0.000  0.000
       0.000  1.000  0.000
       0.000  0.000  1.000
     occupation matrix ns (before diag.):
       0.500  0.000  0.000
       0.000  0.500  0.000
       0.000  0.000  0.500
     ------------------------ ATOM   57 ------------------------
     Tr[ns( 57)] =   1.00000
     eigenvalues:
       0.167  0.167  0.167
     eigenvectors (columns):
       1.000  0.000  0.000
       0.000  1.000  0.000
       0.000  0.000  1.000
     occupation matrix ns (before diag.):
       0.167  0.000  0.000
       0.000  0.167  0.000
       0.000  0.000  0.167
     ------------------------ ATOM   58 ------------------------
     Tr[ns( 58)] =   1.00000
     eigenvalues:
       0.167  0.167  0.167
     eigenvectors (columns):
       1.000  0.000  0.000
       0.000  1.000  0.000
       0.000  0.000  1.000
     occupation matrix ns (before diag.):
       0.167  0.000  0.000
       0.000  0.167  0.000
       0.000  0.000  0.167
     ------------------------ ATOM   59 ------------------------
     Tr[ns( 59)] =   1.00000
     eigenvalues:
       0.167  0.167  0.167
     eigenvectors (columns):
       1.000  0.000  0.000
       0.000  1.000  0.000
       0.000  0.000  1.000
     occupation matrix ns (before diag.):
       0.167  0.000  0.000
       0.000  0.167  0.000
       0.000  0.000  0.167
     ------------------------ ATOM   60 ------------------------
     Tr[ns( 60)] =   1.00000
     eigenvalues:
       0.167  0.167  0.167
     eigenvectors (columns):
       1.000  0.000  0.000
       0.000  1.000  0.000
       0.000  0.000  1.000
     occupation matrix ns (before diag.):
       0.167  0.000  0.000
       0.000  0.167  0.000
       0.000  0.000  0.167
     ------------------------ ATOM   61 ------------------------
     Tr[ns( 61)] =   3.00000
     eigenvalues:
       0.500  0.500  0.500
     eigenvectors (columns):
       1.000  0.000  0.000
       0.000  1.000  0.000
       0.000  0.000  1.000
     occupation matrix ns (before diag.):
       0.500  0.000  0.000
       0.000  0.500  0.000
       0.000  0.000  0.500
     ------------------------ ATOM   62 ------------------------
     Tr[ns( 62)] =   3.00000
     eigenvalues:
       0.500  0.500  0.500
     eigenvectors (columns):
       1.000  0.000  0.000
       0.000  1.000  0.000
       0.000  0.000  1.000
     occupation matrix ns (before diag.):
       0.500  0.000  0.000
       0.000  0.500  0.000
       0.000  0.000  0.500
     ------------------------ ATOM   63 ------------------------
     Tr[ns( 63)] =   3.00000
     eigenvalues:
       0.500  0.500  0.500
     eigenvectors (columns):
       1.000  0.000  0.000
       0.000  1.000  0.000
       0.000  0.000  1.000
     occupation matrix ns (before diag.):
       0.500  0.000  0.000
       0.000  0.500  0.000
       0.000  0.000  0.500
     ------------------------ ATOM   64 ------------------------
     Tr[ns( 64)] =   3.00000
     eigenvalues:
       0.500  0.500  0.500
     eigenvectors (columns):
       1.000  0.000  0.000
       0.000  1.000  0.000
       0.000  0.000  1.000
     occupation matrix ns (before diag.):
       0.500  0.000  0.000
       0.000  0.500  0.000
       0.000  0.000  0.500
     ------------------------ ATOM   65 ------------------------
     Tr[ns( 65)] =   1.00000
     eigenvalues:
       0.167  0.167  0.167
     eigenvectors (columns):
       1.000  0.000  0.000
       0.000  1.000  0.000
       0.000  0.000  1.000
     occupation matrix ns (before diag.):
       0.167  0.000  0.000
       0.000  0.167  0.000
       0.000  0.000  0.167
     ------------------------ ATOM   66 ------------------------
     Tr[ns( 66)] =   1.00000
     eigenvalues:
       0.167  0.167  0.167
     eigenvectors (columns):
       1.000  0.000  0.000
       0.000  1.000  0.000
       0.000  0.000  1.000
     occupation matrix ns (before diag.):
       0.167  0.000  0.000
       0.000  0.167  0.000
       0.000  0.000  0.167
     ------------------------ ATOM   67 ------------------------
     Tr[ns( 67)] =   1.00000
     eigenvalues:
       0.167  0.167  0.167
     eigenvectors (columns):
       1.000  0.000  0.000
       0.000  1.000  0.000
       0.000  0.000  1.000
     occupation matrix ns (before diag.):
       0.167  0.000  0.000
       0.000  0.167  0.000
       0.000  0.000  0.167
     ------------------------ ATOM   68 ------------------------
     Tr[ns( 68)] =   1.00000
     eigenvalues:
       0.167  0.167  0.167
     eigenvectors (columns):
       1.000  0.000  0.000
       0.000  1.000  0.000
       0.000  0.000  1.000
     occupation matrix ns (before diag.):
       0.167  0.000  0.000
       0.000  0.167  0.000
       0.000  0.000  0.167
     ------------------------ ATOM   69 ------------------------
     Tr[ns( 69)] =   3.00000
     eigenvalues:
       0.500  0.500  0.500
     eigenvectors (columns):
       1.000  0.000  0.000
       0.000  1.000  0.000
       0.000  0.000  1.000
     occupation matrix ns (before diag.):
       0.500  0.000  0.000
       0.000  0.500  0.000
       0.000  0.000  0.500
     ------------------------ ATOM   70 ------------------------
     Tr[ns( 70)] =   3.00000
     eigenvalues:
       0.500  0.500  0.500
     eigenvectors (columns):
       1.000  0.000  0.000
       0.000  1.000  0.000
       0.000  0.000  1.000
     occupation matrix ns (before diag.):
       0.500  0.000  0.000
       0.000  0.500  0.000
       0.000  0.000  0.500
     ------------------------ ATOM   71 ------------------------
     Tr[ns( 71)] =   3.00000
     eigenvalues:
       0.500  0.500  0.500
     eigenvectors (columns):
       1.000  0.000  0.000
       0.000  1.000  0.000
       0.000  0.000  1.000
     occupation matrix ns (before diag.):
       0.500  0.000  0.000
       0.000  0.500  0.000
       0.000  0.000  0.500
     ------------------------ ATOM   72 ------------------------
     Tr[ns( 72)] =   3.00000
     eigenvalues:
       0.500  0.500  0.500
     eigenvectors (columns):
       1.000  0.000  0.000
       0.000  1.000  0.000
       0.000  0.000  1.000
     occupation matrix ns (before diag.):
       0.500  0.000  0.000
       0.000  0.500  0.000
       0.000  0.000  0.500
     ------------------------ ATOM   73 ------------------------
     Tr[ns( 73)] =   1.00000
     eigenvalues:
       0.167  0.167  0.167
     eigenvectors (columns):
       1.000  0.000  0.000
       0.000  1.000  0.000
       0.000  0.000  1.000
     occupation matrix ns (before diag.):
       0.167  0.000  0.000
       0.000  0.167  0.000
       0.000  0.000  0.167
     ------------------------ ATOM   74 ------------------------
     Tr[ns( 74)] =   1.00000
     eigenvalues:
       0.167  0.167  0.167
     eigenvectors (columns):
       1.000  0.000  0.000
       0.000  1.000  0.000
       0.000  0.000  1.000
     occupation matrix ns (before diag.):
       0.167  0.000  0.000
       0.000  0.167  0.000
       0.000  0.000  0.167
     ------------------------ ATOM   75 ------------------------
     Tr[ns( 75)] =   1.00000
     eigenvalues:
       0.167  0.167  0.167
     eigenvectors (columns):
       1.000  0.000  0.000
       0.000  1.000  0.000
       0.000  0.000  1.000
     occupation matrix ns (before diag.):
       0.167  0.000  0.000
       0.000  0.167  0.000
       0.000  0.000  0.167
     ------------------------ ATOM   76 ------------------------
     Tr[ns( 76)] =   1.00000
     eigenvalues:
       0.167  0.167  0.167
     eigenvectors (columns):
       1.000  0.000  0.000
       0.000  1.000  0.000
       0.000  0.000  1.000
     occupation matrix ns (before diag.):
       0.167  0.000  0.000
       0.000  0.167  0.000
       0.000  0.000  0.167
     ------------------------ ATOM   77 ------------------------
     Tr[ns( 77)] =   3.00000
     eigenvalues:
       0.500  0.500  0.500
     eigenvectors (columns):
       1.000  0.000  0.000
       0.000  1.000  0.000
       0.000  0.000  1.000
     occupation matrix ns (before diag.):
       0.500  0.000  0.000
       0.000  0.500  0.000
       0.000  0.000  0.500
     ------------------------ ATOM   78 ------------------------
     Tr[ns( 78)] =   3.00000
     eigenvalues:
       0.500  0.500  0.500
     eigenvectors (columns):
       1.000  0.000  0.000
       0.000  1.000  0.000
       0.000  0.000  1.000
     occupation matrix ns (before diag.):
       0.500  0.000  0.000
       0.000  0.500  0.000
       0.000  0.000  0.500
     ------------------------ ATOM   79 ------------------------
     Tr[ns( 79)] =   3.00000
     eigenvalues:
       0.500  0.500  0.500
     eigenvectors (columns):
       1.000  0.000  0.000
       0.000  1.000  0.000
       0.000  0.000  1.000
     occupation matrix ns (before diag.):
       0.500  0.000  0.000
       0.000  0.500  0.000
       0.000  0.000  0.500
     ------------------------ ATOM   80 ------------------------
     Tr[ns( 80)] =   3.00000
     eigenvalues:
       0.500  0.500  0.500
     eigenvectors (columns):
       1.000  0.000  0.000
       0.000  1.000  0.000
       0.000  0.000  1.000
     occupation matrix ns (before diag.):
       0.500  0.000  0.000
       0.000  0.500  0.000
       0.000  0.000  0.500
     ------------------------ ATOM   81 ------------------------
     Tr[ns( 81)] =   1.00000
     eigenvalues:
       0.167  0.167  0.167
     eigenvectors (columns):
       1.000  0.000  0.000
       0.000  1.000  0.000
       0.000  0.000  1.000
     occupation matrix ns (before diag.):
       0.167  0.000  0.000
       0.000  0.167  0.000
       0.000  0.000  0.167
     ------------------------ ATOM   82 ------------------------
     Tr[ns( 82)] =   1.00000
     eigenvalues:
       0.167  0.167  0.167
     eigenvectors (columns):
       1.000  0.000  0.000
       0.000  1.000  0.000
       0.000  0.000  1.000
     occupation matrix ns (before diag.):
       0.167  0.000  0.000
       0.000  0.167  0.000
       0.000  0.000  0.167
     ------------------------ ATOM   83 ------------------------
     Tr[ns( 83)] =   1.00000
     eigenvalues:
       0.167  0.167  0.167
     eigenvectors (columns):
       1.000  0.000  0.000
       0.000  1.000  0.000
       0.000  0.000  1.000
     occupation matrix ns (before diag.):
       0.167  0.000  0.000
       0.000  0.167  0.000
       0.000  0.000  0.167
     ------------------------ ATOM   84 ------------------------
     Tr[ns( 84)] =   1.00000
     eigenvalues:
       0.167  0.167  0.167
     eigenvectors (columns):
       1.000  0.000  0.000
       0.000  1.000  0.000
       0.000  0.000  1.000
     occupation matrix ns (before diag.):
       0.167  0.000  0.000
       0.000  0.167  0.000
       0.000  0.000  0.167
     ------------------------ ATOM   85 ------------------------
     Tr[ns( 85)] =   3.00000
     eigenvalues:
       0.500  0.500  0.500
     eigenvectors (columns):
       1.000  0.000  0.000
       0.000  1.000  0.000
       0.000  0.000  1.000
     occupation matrix ns (before diag.):
       0.500  0.000  0.000
       0.000  0.500  0.000
       0.000  0.000  0.500
     ------------------------ ATOM   86 ------------------------
     Tr[ns( 86)] =   3.00000
     eigenvalues:
       0.500  0.500  0.500
     eigenvectors (columns):
       1.000  0.000  0.000
       0.000  1.000  0.000
       0.000  0.000  1.000
     occupation matrix ns (before diag.):
       0.500  0.000  0.000
       0.000  0.500  0.000
       0.000  0.000  0.500
     ------------------------ ATOM   87 ------------------------
     Tr[ns( 87)] =   3.00000
     eigenvalues:
       0.500  0.500  0.500
     eigenvectors (columns):
       1.000  0.000  0.000
       0.000  1.000  0.000
       0.000  0.000  1.000
     occupation matrix ns (before diag.):
       0.500  0.000  0.000
       0.000  0.500  0.000
       0.000  0.000  0.500
     ------------------------ ATOM   88 ------------------------
     Tr[ns( 88)] =   3.00000
     eigenvalues:
       0.500  0.500  0.500
     eigenvectors (columns):
       1.000  0.000  0.000
       0.000  1.000  0.000
       0.000  0.000  1.000
     occupation matrix ns (before diag.):
       0.500  0.000  0.000
       0.000  0.500  0.000
       0.000  0.000  0.500
     ------------------------ ATOM   89 ------------------------
     Tr[ns( 89)] =   1.00000
     eigenvalues:
       0.167  0.167  0.167
     eigenvectors (columns):
       1.000  0.000  0.000
       0.000  1.000  0.000
       0.000  0.000  1.000
     occupation matrix ns (before diag.):
       0.167  0.000  0.000
       0.000  0.167  0.000
       0.000  0.000  0.167
     ------------------------ ATOM   90 ------------------------
     Tr[ns( 90)] =   1.00000
     eigenvalues:
       0.167  0.167  0.167
     eigenvectors (columns):
       1.000  0.000  0.000
       0.000  1.000  0.000
       0.000  0.000  1.000
     occupation matrix ns (before diag.):
       0.167  0.000  0.000
       0.000  0.167  0.000
       0.000  0.000  0.167
     ------------------------ ATOM   91 ------------------------
     Tr[ns( 91)] =   1.00000
     eigenvalues:
       0.167  0.167  0.167
     eigenvectors (columns):
       1.000  0.000  0.000
       0.000  1.000  0.000
       0.000  0.000  1.000
     occupation matrix ns (before diag.):
       0.167  0.000  0.000
       0.000  0.167  0.000
       0.000  0.000  0.167
     ------------------------ ATOM   92 ------------------------
     Tr[ns( 92)] =   1.00000
     eigenvalues:
       0.167  0.167  0.167
     eigenvectors (columns):
       1.000  0.000  0.000
       0.000  1.000  0.000
       0.000  0.000  1.000
     occupation matrix ns (before diag.):
       0.167  0.000  0.000
       0.000  0.167  0.000
       0.000  0.000  0.167
     ------------------------ ATOM   93 ------------------------
     Tr[ns( 93)] =   3.00000
     eigenvalues:
       0.500  0.500  0.500
     eigenvectors (columns):
       1.000  0.000  0.000
       0.000  1.000  0.000
       0.000  0.000  1.000
     occupation matrix ns (before diag.):
       0.500  0.000  0.000
       0.000  0.500  0.000
       0.000  0.000  0.500
     ------------------------ ATOM   94 ------------------------
     Tr[ns( 94)] =   3.00000
     eigenvalues:
       0.500  0.500  0.500
     eigenvectors (columns):
       1.000  0.000  0.000
       0.000  1.000  0.000
       0.000  0.000  1.000
     occupation matrix ns (before diag.):
       0.500  0.000  0.000
       0.000  0.500  0.000
       0.000  0.000  0.500
     ------------------------ ATOM   95 ------------------------
     Tr[ns( 95)] =   3.00000
     eigenvalues:
       0.500  0.500  0.500
     eigenvectors (columns):
       1.000  0.000  0.000
       0.000  1.000  0.000
       0.000  0.000  1.000
     occupation matrix ns (before diag.):
       0.500  0.000  0.000
       0.000  0.500  0.000
       0.000  0.000  0.500
     ------------------------ ATOM   96 ------------------------
     Tr[ns( 96)] =   3.00000
     eigenvalues:
       0.500  0.500  0.500
     eigenvectors (columns):
       1.000  0.000  0.000
       0.000  1.000  0.000
       0.000  0.000  1.000
     occupation matrix ns (before diag.):
       0.500  0.000  0.000
       0.000  0.500  0.000
       0.000  0.000  0.500
     ------------------------ ATOM   97 ------------------------
     Tr[ns( 97)] =   1.00000
     eigenvalues:
       0.167  0.167  0.167
     eigenvectors (columns):
       1.000  0.000  0.000
       0.000  1.000  0.000
       0.000  0.000  1.000
     occupation matrix ns (before diag.):
       0.167  0.000  0.000
       0.000  0.167  0.000
       0.000  0.000  0.167
     ------------------------ ATOM   98 ------------------------
     Tr[ns( 98)] =   1.00000
     eigenvalues:
       0.167  0.167  0.167
     eigenvectors (columns):
       1.000  0.000  0.000
       0.000  1.000  0.000
       0.000  0.000  1.000
     occupation matrix ns (before diag.):
       0.167  0.000  0.000
       0.000  0.167  0.000
       0.000  0.000  0.167
     ------------------------ ATOM   99 ------------------------
     Tr[ns( 99)] =   1.00000
     eigenvalues:
       0.167  0.167  0.167
     eigenvectors (columns):
       1.000  0.000  0.000
       0.000  1.000  0.000
       0.000  0.000  1.000
     occupation matrix ns (before diag.):
       0.167  0.000  0.000
       0.000  0.167  0.000
       0.000  0.000  0.167
     ------------------------ ATOM  100 ------------------------
     Tr[ns(100)] =   1.00000
     eigenvalues:
       0.167  0.167  0.167
     eigenvectors (columns):
       1.000  0.000  0.000
       0.000  1.000  0.000
       0.000  0.000  1.000
     occupation matrix ns (before diag.):
       0.167  0.000  0.000
       0.000  0.167  0.000
       0.000  0.000  0.167
     ------------------------ ATOM  101 ------------------------
     Tr[ns(101)] =   3.00000
     eigenvalues:
       0.500  0.500  0.500
     eigenvectors (columns):
       1.000  0.000  0.000
       0.000  1.000  0.000
       0.000  0.000  1.000
     occupation matrix ns (before diag.):
       0.500  0.000  0.000
       0.000  0.500  0.000
       0.000  0.000  0.500
     ------------------------ ATOM  102 ------------------------
     Tr[ns(102)] =   3.00000
     eigenvalues:
       0.500  0.500  0.500
     eigenvectors (columns):
       1.000  0.000  0.000
       0.000  1.000  0.000
       0.000  0.000  1.000
     occupation matrix ns (before diag.):
       0.500  0.000  0.000
       0.000  0.500  0.000
       0.000  0.000  0.500
     ------------------------ ATOM  103 ------------------------
     Tr[ns(103)] =   3.00000
     eigenvalues:
       0.500  0.500  0.500
     eigenvectors (columns):
       1.000  0.000  0.000
       0.000  1.000  0.000
       0.000  0.000  1.000
     occupation matrix ns (before diag.):
       0.500  0.000  0.000
       0.000  0.500  0.000
       0.000  0.000  0.500
     ------------------------ ATOM  104 ------------------------
     Tr[ns(104)] =   3.00000
     eigenvalues:
       0.500  0.500  0.500
     eigenvectors (columns):
       1.000  0.000  0.000
       0.000  1.000  0.000
       0.000  0.000  1.000
     occupation matrix ns (before diag.):
       0.500  0.000  0.000
       0.000  0.500  0.000
       0.000  0.000  0.500
     ------------------------ ATOM  105 ------------------------
     Tr[ns(105)] =   1.00000
     eigenvalues:
       0.167  0.167  0.167
     eigenvectors (columns):
       1.000  0.000  0.000
       0.000  1.000  0.000
       0.000  0.000  1.000
     occupation matrix ns (before diag.):
       0.167  0.000  0.000
       0.000  0.167  0.000
       0.000  0.000  0.167
     ------------------------ ATOM  106 ------------------------
     Tr[ns(106)] =   1.00000
     eigenvalues:
       0.167  0.167  0.167
     eigenvectors (columns):
       1.000  0.000  0.000
       0.000  1.000  0.000
       0.000  0.000  1.000
     occupation matrix ns (before diag.):
       0.167  0.000  0.000
       0.000  0.167  0.000
       0.000  0.000  0.167
     ------------------------ ATOM  107 ------------------------
     Tr[ns(107)] =   1.00000
     eigenvalues:
       0.167  0.167  0.167
     eigenvectors (columns):
       1.000  0.000  0.000
       0.000  1.000  0.000
       0.000  0.000  1.000
     occupation matrix ns (before diag.):
       0.167  0.000  0.000
       0.000  0.167  0.000
       0.000  0.000  0.167
     ------------------------ ATOM  108 ------------------------
     Tr[ns(108)] =   1.00000
     eigenvalues:
       0.167  0.167  0.167
     eigenvectors (columns):
       1.000  0.000  0.000
       0.000  1.000  0.000
       0.000  0.000  1.000
     occupation matrix ns (before diag.):
       0.167  0.000  0.000
       0.000  0.167  0.000
       0.000  0.000  0.167
     ------------------------ ATOM  109 ------------------------
     Tr[ns(109)] =   3.00000
     eigenvalues:
       0.500  0.500  0.500
     eigenvectors (columns):
       1.000  0.000  0.000
       0.000  1.000  0.000
       0.000  0.000  1.000
     occupation matrix ns (before diag.):
       0.500  0.000  0.000
       0.000  0.500  0.000
       0.000  0.000  0.500
     ------------------------ ATOM  110 ------------------------
     Tr[ns(110)] =   3.00000
     eigenvalues:
       0.500  0.500  0.500
     eigenvectors (columns):
       1.000  0.000  0.000
       0.000  1.000  0.000
       0.000  0.000  1.000
     occupation matrix ns (before diag.):
       0.500  0.000  0.000
       0.000  0.500  0.000
       0.000  0.000  0.500
     ------------------------ ATOM  111 ------------------------
     Tr[ns(111)] =   3.00000
     eigenvalues:
       0.500  0.500  0.500
     eigenvectors (columns):
       1.000  0.000  0.000
       0.000  1.000  0.000
       0.000  0.000  1.000
     occupation matrix ns (before diag.):
       0.500  0.000  0.000
       0.000  0.500  0.000
       0.000  0.000  0.500
     ------------------------ ATOM  112 ------------------------
     Tr[ns(112)] =   3.00000
     eigenvalues:
       0.500  0.500  0.500
     eigenvectors (columns):
       1.000  0.000  0.000
       0.000  1.000  0.000
       0.000  0.000  1.000
     occupation matrix ns (before diag.):
       0.500  0.000  0.000
       0.000  0.500  0.000
       0.000  0.000  0.500
     ------------------------ ATOM  113 ------------------------
     Tr[ns(113)] =   1.00000
     eigenvalues:
       0.167  0.167  0.167
     eigenvectors (columns):
       1.000  0.000  0.000
       0.000  1.000  0.000
       0.000  0.000  1.000
     occupation matrix ns (before diag.):
       0.167  0.000  0.000
       0.000  0.167  0.000
       0.000  0.000  0.167
     ------------------------ ATOM  114 ------------------------
     Tr[ns(114)] =   1.00000
     eigenvalues:
       0.167  0.167  0.167
     eigenvectors (columns):
       1.000  0.000  0.000
       0.000  1.000  0.000
       0.000  0.000  1.000
     occupation matrix ns (before diag.):
       0.167  0.000  0.000
       0.000  0.167  0.000
       0.000  0.000  0.167
     ------------------------ ATOM  115 ------------------------
     Tr[ns(115)] =   1.00000
     eigenvalues:
       0.167  0.167  0.167
     eigenvectors (columns):
       1.000  0.000  0.000
       0.000  1.000  0.000
       0.000  0.000  1.000
     occupation matrix ns (before diag.):
       0.167  0.000  0.000
       0.000  0.167  0.000
       0.000  0.000  0.167
     ------------------------ ATOM  116 ------------------------
     Tr[ns(116)] =   1.00000
     eigenvalues:
       0.167  0.167  0.167
     eigenvectors (columns):
       1.000  0.000  0.000
       0.000  1.000  0.000
       0.000  0.000  1.000
     occupation matrix ns (before diag.):
       0.167  0.000  0.000
       0.000  0.167  0.000
       0.000  0.000  0.167
     ------------------------ ATOM  117 ------------------------
     Tr[ns(117)] =   3.00000
     eigenvalues:
       0.500  0.500  0.500
     eigenvectors (columns):
       1.000  0.000  0.000
       0.000  1.000  0.000
       0.000  0.000  1.000
     occupation matrix ns (before diag.):
       0.500  0.000  0.000
       0.000  0.500  0.000
       0.000  0.000  0.500
     ------------------------ ATOM  118 ------------------------
     Tr[ns(118)] =   3.00000
     eigenvalues:
       0.500  0.500  0.500
     eigenvectors (columns):
       1.000  0.000  0.000
       0.000  1.000  0.000
       0.000  0.000  1.000
     occupation matrix ns (before diag.):
       0.500  0.000  0.000
       0.000  0.500  0.000
       0.000  0.000  0.500
     ------------------------ ATOM  119 ------------------------
     Tr[ns(119)] =   3.00000
     eigenvalues:
       0.500  0.500  0.500
     eigenvectors (columns):
       1.000  0.000  0.000
       0.000  1.000  0.000
       0.000  0.000  1.000
     occupation matrix ns (before diag.):
       0.500  0.000  0.000
       0.000  0.500  0.000
       0.000  0.000  0.500
     ------------------------ ATOM  120 ------------------------
     Tr[ns(120)] =   3.00000
     eigenvalues:
       0.500  0.500  0.500
     eigenvectors (columns):
       1.000  0.000  0.000
       0.000  1.000  0.000
       0.000  0.000  1.000
     occupation matrix ns (before diag.):
       0.500  0.000  0.000
       0.000  0.500  0.000
       0.000  0.000  0.500
     ------------------------ ATOM  121 ------------------------
     Tr[ns(121)] =   1.00000
     eigenvalues:
       0.167  0.167  0.167
     eigenvectors (columns):
       1.000  0.000  0.000
       0.000  1.000  0.000
       0.000  0.000  1.000
     occupation matrix ns (before diag.):
       0.167  0.000  0.000
       0.000  0.167  0.000
       0.000  0.000  0.167
     ------------------------ ATOM  122 ------------------------
     Tr[ns(122)] =   1.00000
     eigenvalues:
       0.167  0.167  0.167
     eigenvectors (columns):
       1.000  0.000  0.000
       0.000  1.000  0.000
       0.000  0.000  1.000
     occupation matrix ns (before diag.):
       0.167  0.000  0.000
       0.000  0.167  0.000
       0.000  0.000  0.167
     ------------------------ ATOM  123 ------------------------
     Tr[ns(123)] =   1.00000
     eigenvalues:
       0.167  0.167  0.167
     eigenvectors (columns):
       1.000  0.000  0.000
       0.000  1.000  0.000
       0.000  0.000  1.000
     occupation matrix ns (before diag.):
       0.167  0.000  0.000
       0.000  0.167  0.000
       0.000  0.000  0.167
     ------------------------ ATOM  124 ------------------------
     Tr[ns(124)] =   1.00000
     eigenvalues:
       0.167  0.167  0.167
     eigenvectors (columns):
       1.000  0.000  0.000
       0.000  1.000  0.000
       0.000  0.000  1.000
     occupation matrix ns (before diag.):
       0.167  0.000  0.000
       0.000  0.167  0.000
       0.000  0.000  0.167
     ------------------------ ATOM  125 ------------------------
     Tr[ns(125)] =   3.00000
     eigenvalues:
       0.500  0.500  0.500
     eigenvectors (columns):
       1.000  0.000  0.000
       0.000  1.000  0.000
       0.000  0.000  1.000
     occupation matrix ns (before diag.):
       0.500  0.000  0.000
       0.000  0.500  0.000
       0.000  0.000  0.500
     ------------------------ ATOM  126 ------------------------
     Tr[ns(126)] =   3.00000
     eigenvalues:
       0.500  0.500  0.500
     eigenvectors (columns):
       1.000  0.000  0.000
       0.000  1.000  0.000
       0.000  0.000  1.000
     occupation matrix ns (before diag.):
       0.500  0.000  0.000
       0.000  0.500  0.000
       0.000  0.000  0.500
     ------------------------ ATOM  127 ------------------------
     Tr[ns(127)] =   3.00000
     eigenvalues:
       0.500  0.500  0.500
     eigenvectors (columns):
       1.000  0.000  0.000
       0.000  1.000  0.000
       0.000  0.000  1.000
     occupation matrix ns (before diag.):
       0.500  0.000  0.000
       0.000  0.500  0.000
       0.000  0.000  0.500
     ------------------------ ATOM  128 ------------------------
     Tr[ns(128)] =   3.00000
     eigenvalues:
       0.500  0.500  0.500
     eigenvectors (columns):
       1.000  0.000  0.000
       0.000  1.000  0.000
       0.000  0.000  1.000
     occupation matrix ns (before diag.):
       0.500  0.000  0.000
       0.000  0.500  0.000
       0.000  0.000  0.500
     ------------------------ ATOM  129 ------------------------
     Tr[ns(129)] =   1.00000
     eigenvalues:
       0.167  0.167  0.167
     eigenvectors (columns):
       1.000  0.000  0.000
       0.000  1.000  0.000
       0.000  0.000  1.000
     occupation matrix ns (before diag.):
       0.167  0.000  0.000
       0.000  0.167  0.000
       0.000  0.000  0.167
     ------------------------ ATOM  130 ------------------------
     Tr[ns(130)] =   1.00000
     eigenvalues:
       0.167  0.167  0.167
     eigenvectors (columns):
       1.000  0.000  0.000
       0.000  1.000  0.000
       0.000  0.000  1.000
     occupation matrix ns (before diag.):
       0.167  0.000  0.000
       0.000  0.167  0.000
       0.000  0.000  0.167
     ------------------------ ATOM  131 ------------------------
     Tr[ns(131)] =   1.00000
     eigenvalues:
       0.167  0.167  0.167
     eigenvectors (columns):
       1.000  0.000  0.000
       0.000  1.000  0.000
       0.000  0.000  1.000
     occupation matrix ns (before diag.):
       0.167  0.000  0.000
       0.000  0.167  0.000
       0.000  0.000  0.167
     ------------------------ ATOM  132 ------------------------
     Tr[ns(132)] =   1.00000
     eigenvalues:
       0.167  0.167  0.167
     eigenvectors (columns):
       1.000  0.000  0.000
       0.000  1.000  0.000
       0.000  0.000  1.000
     occupation matrix ns (before diag.):
       0.167  0.000  0.000
       0.000  0.167  0.000
       0.000  0.000  0.167
     ------------------------ ATOM  133 ------------------------
     Tr[ns(133)] =   3.00000
     eigenvalues:
       0.500  0.500  0.500
     eigenvectors (columns):
       1.000  0.000  0.000
       0.000  1.000  0.000
       0.000  0.000  1.000
     occupation matrix ns (before diag.):
       0.500  0.000  0.000
       0.000  0.500  0.000
       0.000  0.000  0.500
     ------------------------ ATOM  134 ------------------------
     Tr[ns(134)] =   3.00000
     eigenvalues:
       0.500  0.500  0.500
     eigenvectors (columns):
       1.000  0.000  0.000
       0.000  1.000  0.000
       0.000  0.000  1.000
     occupation matrix ns (before diag.):
       0.500  0.000  0.000
       0.000  0.500  0.000
       0.000  0.000  0.500
     ------------------------ ATOM  135 ------------------------
     Tr[ns(135)] =   3.00000
     eigenvalues:
       0.500  0.500  0.500
     eigenvectors (columns):
       1.000  0.000  0.000
       0.000  1.000  0.000
       0.000  0.000  1.000
     occupation matrix ns (before diag.):
       0.500  0.000  0.000
       0.000  0.500  0.000
       0.000  0.000  0.500
     ------------------------ ATOM  136 ------------------------
     Tr[ns(136)] =   3.00000
     eigenvalues:
       0.500  0.500  0.500
     eigenvectors (columns):
       1.000  0.000  0.000
       0.000  1.000  0.000
       0.000  0.000  1.000
     occupation matrix ns (before diag.):
       0.500  0.000  0.000
       0.000  0.500  0.000
       0.000  0.000  0.500
     ------------------------ ATOM  137 ------------------------
     Tr[ns(137)] =   1.00000
     eigenvalues:
       0.167  0.167  0.167
     eigenvectors (columns):
       1.000  0.000  0.000
       0.000  1.000  0.000
       0.000  0.000  1.000
     occupation matrix ns (before diag.):
       0.167  0.000  0.000
       0.000  0.167  0.000
       0.000  0.000  0.167
     ------------------------ ATOM  138 ------------------------
     Tr[ns(138)] =   1.00000
     eigenvalues:
       0.167  0.167  0.167
     eigenvectors (columns):
       1.000  0.000  0.000
       0.000  1.000  0.000
       0.000  0.000  1.000
     occupation matrix ns (before diag.):
       0.167  0.000  0.000
       0.000  0.167  0.000
       0.000  0.000  0.167
     ------------------------ ATOM  139 ------------------------
     Tr[ns(139)] =   1.00000
     eigenvalues:
       0.167  0.167  0.167
     eigenvectors (columns):
       1.000  0.000  0.000
       0.000  1.000  0.000
       0.000  0.000  1.000
     occupation matrix ns (before diag.):
       0.167  0.000  0.000
       0.000  0.167  0.000
       0.000  0.000  0.167
     ------------------------ ATOM  140 ------------------------
     Tr[ns(140)] =   1.00000
     eigenvalues:
       0.167  0.167  0.167
     eigenvectors (columns):
       1.000  0.000  0.000
       0.000  1.000  0.000
       0.000  0.000  1.000
     occupation matrix ns (before diag.):
       0.167  0.000  0.000
       0.000  0.167  0.000
       0.000  0.000  0.167
     ------------------------ ATOM  141 ------------------------
     Tr[ns(141)] =   3.00000
     eigenvalues:
       0.500  0.500  0.500
     eigenvectors (columns):
       1.000  0.000  0.000
       0.000  1.000  0.000
       0.000  0.000  1.000
     occupation matrix ns (before diag.):
       0.500  0.000  0.000
       0.000  0.500  0.000
       0.000  0.000  0.500
     ------------------------ ATOM  142 ------------------------
     Tr[ns(142)] =   3.00000
     eigenvalues:
       0.500  0.500  0.500
     eigenvectors (columns):
       1.000  0.000  0.000
       0.000  1.000  0.000
       0.000  0.000  1.000
     occupation matrix ns (before diag.):
       0.500  0.000  0.000
       0.000  0.500  0.000
       0.000  0.000  0.500
     ------------------------ ATOM  143 ------------------------
     Tr[ns(143)] =   3.00000
     eigenvalues:
       0.500  0.500  0.500
     eigenvectors (columns):
       1.000  0.000  0.000
       0.000  1.000  0.000
       0.000  0.000  1.000
     occupation matrix ns (before diag.):
       0.500  0.000  0.000
       0.000  0.500  0.000
       0.000  0.000  0.500
     ------------------------ ATOM  144 ------------------------
     Tr[ns(144)] =   3.00000
     eigenvalues:
       0.500  0.500  0.500
     eigenvectors (columns):
       1.000  0.000  0.000
       0.000  1.000  0.000
       0.000  0.000  1.000
     occupation matrix ns (before diag.):
       0.500  0.000  0.000
       0.000  0.500  0.000
       0.000  0.000  0.500
     ------------------------ ATOM  145 ------------------------
     Tr[ns(145)] =   1.00000
     eigenvalues:
       0.167  0.167  0.167
     eigenvectors (columns):
       1.000  0.000  0.000
       0.000  1.000  0.000
       0.000  0.000  1.000
     occupation matrix ns (before diag.):
       0.167  0.000  0.000
       0.000  0.167  0.000
       0.000  0.000  0.167
     ------------------------ ATOM  146 ------------------------
     Tr[ns(146)] =   1.00000
     eigenvalues:
       0.167  0.167  0.167
     eigenvectors (columns):
       1.000  0.000  0.000
       0.000  1.000  0.000
       0.000  0.000  1.000
     occupation matrix ns (before diag.):
       0.167  0.000  0.000
       0.000  0.167  0.000
       0.000  0.000  0.167
     ------------------------ ATOM  147 ------------------------
     Tr[ns(147)] =   1.00000
     eigenvalues:
       0.167  0.167  0.167
     eigenvectors (columns):
       1.000  0.000  0.000
       0.000  1.000  0.000
       0.000  0.000  1.000
     occupation matrix ns (before diag.):
       0.167  0.000  0.000
       0.000  0.167  0.000
       0.000  0.000  0.167
     ------------------------ ATOM  148 ------------------------
     Tr[ns(148)] =   1.00000
     eigenvalues:
       0.167  0.167  0.167
     eigenvectors (columns):
       1.000  0.000  0.000
       0.000  1.000  0.000
       0.000  0.000  1.000
     occupation matrix ns (before diag.):
       0.167  0.000  0.000
       0.000  0.167  0.000
       0.000  0.000  0.167
     ------------------------ ATOM  149 ------------------------
     Tr[ns(149)] =   3.00000
     eigenvalues:
       0.500  0.500  0.500
     eigenvectors (columns):
       1.000  0.000  0.000
       0.000  1.000  0.000
       0.000  0.000  1.000
     occupation matrix ns (before diag.):
       0.500  0.000  0.000
       0.000  0.500  0.000
       0.000  0.000  0.500
     ------------------------ ATOM  150 ------------------------
     Tr[ns(150)] =   3.00000
     eigenvalues:
       0.500  0.500  0.500
     eigenvectors (columns):
       1.000  0.000  0.000
       0.000  1.000  0.000
       0.000  0.000  1.000
     occupation matrix ns (before diag.):
       0.500  0.000  0.000
       0.000  0.500  0.000
       0.000  0.000  0.500
     ------------------------ ATOM  151 ------------------------
     Tr[ns(151)] =   3.00000
     eigenvalues:
       0.500  0.500  0.500
     eigenvectors (columns):
       1.000  0.000  0.000
       0.000  1.000  0.000
       0.000  0.000  1.000
     occupation matrix ns (before diag.):
       0.500  0.000  0.000
       0.000  0.500  0.000
       0.000  0.000  0.500
     ------------------------ ATOM  152 ------------------------
     Tr[ns(152)] =   3.00000
     eigenvalues:
       0.500  0.500  0.500
     eigenvectors (columns):
       1.000  0.000  0.000
       0.000  1.000  0.000
       0.000  0.000  1.000
     occupation matrix ns (before diag.):
       0.500  0.000  0.000
[...]
     eigenvectors (columns):
       0.522 -0.846 -0.107
       0.846  0.499  0.186
      -0.104 -0.188  0.977
     occupation matrix ns (before diag.):
       0.899 -0.000 -0.000
      -0.000  0.899  0.001
      -0.000  0.001  0.902
     ------------------------ ATOM  169 ------------------------
     Tr[ns(169)] =   4.30799
     eigenvalues:
       0.706  0.723  0.725
     eigenvectors (columns):
      -0.598  0.727 -0.337
      -0.543 -0.059  0.838
      -0.590 -0.684 -0.430
     occupation matrix ns (before diag.):
       0.717 -0.006 -0.006
      -0.006  0.719 -0.006
      -0.006 -0.006  0.718
     ------------------------ ATOM  170 ------------------------
     Tr[ns(170)] =   4.30177
     eigenvalues:
       0.705  0.722  0.724
     eigenvectors (columns):
       0.608 -0.788  0.101
       0.556  0.332 -0.762
       0.567  0.519  0.639
     occupation matrix ns (before diag.):
       0.716 -0.006 -0.006
      -0.006  0.718 -0.006
      -0.006 -0.006  0.717
     ------------------------ ATOM  171 ------------------------
     Tr[ns(171)] =   4.06406
     eigenvalues:
       0.670  0.671  0.691
     eigenvectors (columns):
       0.281 -0.769  0.575
       0.819 -0.121 -0.561
       0.501  0.628  0.596
     occupation matrix ns (before diag.):
       0.678 -0.007  0.007
      -0.007  0.677 -0.007
       0.007 -0.007  0.678
     ------------------------ ATOM  172 ------------------------
     Tr[ns(172)] =   4.19442
     eigenvalues:
       0.688  0.700  0.710
     eigenvectors (columns):
      -0.063 -0.997  0.033
      -0.698  0.020 -0.716
       0.714 -0.068 -0.697
     occupation matrix ns (before diag.):
       0.700 -0.001  0.000
      -0.001  0.699  0.011
       0.000  0.011  0.698
     ------------------------ ATOM  173 ------------------------
     Tr[ns(173)] =   5.39764
     eigenvalues:
       0.898  0.899  0.901
     eigenvectors (columns):
      -0.329  0.610  0.721
      -0.172 -0.789  0.589
       0.928  0.070  0.365
     occupation matrix ns (before diag.):
       0.900  0.001  0.001
       0.001  0.900  0.001
       0.001  0.001  0.899
     ------------------------ ATOM  174 ------------------------
     Tr[ns(174)] =   5.39516
     eigenvalues:
       0.897  0.899  0.901
     eigenvectors (columns):
       0.979  0.176  0.102
       0.163 -0.979  0.119
      -0.120  0.100  0.988
     occupation matrix ns (before diag.):
       0.897 -0.000  0.000
      -0.000  0.899  0.000
       0.000  0.000  0.901
     ------------------------ ATOM  175 ------------------------
     Tr[ns(175)] =   5.37398
     eigenvalues:
       0.894  0.896  0.897
     eigenvectors (columns):
       0.151 -0.936 -0.317
      -0.571  0.179 -0.801
       0.807  0.302 -0.508
     occupation matrix ns (before diag.):
       0.896  0.000  0.000
       0.000  0.896  0.001
       0.000  0.001  0.895
     ------------------------ ATOM  176 ------------------------
     Tr[ns(176)] =   5.39110
     eigenvalues:
       0.898  0.899  0.899
     eigenvectors (columns):
       0.699  0.000 -0.715
       0.083  0.993  0.082
       0.710 -0.116  0.695
     occupation matrix ns (before diag.):
       0.899 -0.000 -0.001
      -0.000  0.899 -0.000
      -0.001 -0.000  0.898
     ------------------------ ATOM  177 ------------------------
     Tr[ns(177)] =   3.95096
     eigenvalues:
       0.658  0.659  0.659
     eigenvectors (columns):
      -0.658 -0.067 -0.750
      -0.558  0.713  0.425
       0.506  0.698 -0.506
     occupation matrix ns (before diag.):
       0.659 -0.001  0.001
      -0.001  0.658  0.000
       0.001  0.000  0.658
     ------------------------ ATOM  178 ------------------------
     Tr[ns(178)] =   3.94897
     eigenvalues:
       0.657  0.658  0.659
     eigenvectors (columns):
       0.671  0.010 -0.741
       0.555 -0.670  0.493
      -0.492 -0.743 -0.455
     occupation matrix ns (before diag.):
       0.658 -0.001  0.001
      -0.001  0.658  0.000
       0.001  0.000  0.658
     ------------------------ ATOM  179 ------------------------
     Tr[ns(179)] =   4.06765
     eigenvalues:
       0.671  0.673  0.690
     eigenvectors (columns):
      -0.754  0.301 -0.584
      -0.069  0.847  0.526
      -0.653 -0.437  0.618
     occupation matrix ns (before diag.):
       0.678 -0.005 -0.007
      -0.005  0.677  0.006
      -0.007  0.006  0.679
     ------------------------ ATOM  180 ------------------------
     Tr[ns(180)] =   4.17404
     eigenvalues:
       0.683  0.696  0.708
     eigenvectors (columns):
       0.712 -0.087 -0.697
       0.699 -0.010  0.715
       0.069  0.996 -0.053
     occupation matrix ns (before diag.):
       0.695 -0.013 -0.000
      -0.013  0.696 -0.001
      -0.000 -0.001  0.696
     ------------------------ ATOM  181 ------------------------
     Tr[ns(181)] =   5.36383
     eigenvalues:
       0.893  0.894  0.895
     eigenvectors (columns):
       0.515  0.737 -0.437
      -0.697  0.064 -0.715
      -0.499  0.673  0.547
     occupation matrix ns (before diag.):
       0.894  0.001 -0.000
       0.001  0.894 -0.001
      -0.000 -0.001  0.894
     ------------------------ ATOM  182 ------------------------
     Tr[ns(182)] =   5.36953
     eigenvalues:
       0.894  0.895  0.896
     eigenvectors (columns):
       0.708 -0.239  0.665
       0.701  0.357 -0.618
      -0.090  0.903  0.420
     occupation matrix ns (before diag.):
       0.895 -0.001  0.000
      -0.001  0.895 -0.000
       0.000 -0.000  0.895
     ------------------------ ATOM  183 ------------------------
     Tr[ns(183)] =   5.39023
     eigenvalues:
       0.896  0.899  0.900
     eigenvectors (columns):
       0.443 -0.886 -0.134
      -0.203  0.047 -0.978
       0.873  0.460 -0.159
     occupation matrix ns (before diag.):
       0.899  0.000 -0.001
       0.000  0.900  0.001
      -0.001  0.001  0.897
     ------------------------ ATOM  184 ------------------------
     Tr[ns(184)] =   5.38705
     eigenvalues:
       0.897  0.898  0.899
     eigenvectors (columns):
       0.886  0.284 -0.367
       0.033 -0.827 -0.561
       0.463 -0.485  0.742
     occupation matrix ns (before diag.):
       0.897  0.000 -0.001
       0.000  0.898 -0.000
      -0.001 -0.000  0.898
     ------------------------ ATOM  185 ------------------------
     Tr[ns(185)] =   4.03752
     eigenvalues:
       0.665  0.666  0.687
     eigenvectors (columns):
       0.691  0.416  0.591
      -0.723  0.405  0.560
      -0.006 -0.814  0.581
     occupation matrix ns (before diag.):
       0.673  0.007  0.007
       0.007  0.672  0.007
       0.007  0.007  0.673
     ------------------------ ATOM  186 ------------------------
     Tr[ns(186)] =   4.19122
     eigenvalues:
       0.687  0.698  0.711
     eigenvectors (columns):
      -0.666 -0.004  0.746
      -0.006 -1.000 -0.011
       0.746 -0.012  0.666
     occupation matrix ns (before diag.):
       0.700 -0.000  0.012
      -0.000  0.698 -0.000
       0.012 -0.000  0.698
     ------------------------ ATOM  187 ------------------------
     Tr[ns(187)] =   4.18508
     eigenvalues:
       0.684  0.698  0.711
     eigenvectors (columns):
       0.674 -0.053  0.737
      -0.739 -0.060  0.672
       0.008 -0.997 -0.079
     occupation matrix ns (before diag.):
       0.699  0.013 -0.001
       0.013  0.696 -0.001
      -0.001 -0.001  0.698
     ------------------------ ATOM  188 ------------------------
     Tr[ns(188)] =   4.07052
     eigenvalues:
       0.671  0.672  0.692
     eigenvectors (columns):
       0.766  0.063 -0.639
      -0.527  0.632 -0.569
       0.368  0.772  0.517
     occupation matrix ns (before diag.):
       0.680  0.008 -0.007
       0.008  0.678 -0.006
      -0.007 -0.006  0.677
     ------------------------ ATOM  189 ------------------------
     Tr[ns(189)] =   5.37821
     eigenvalues:
       0.895  0.897  0.897
     eigenvectors (columns):
       0.454 -0.192 -0.870
       0.774 -0.400  0.492
       0.442  0.896  0.033
     occupation matrix ns (before diag.):
       0.897 -0.001 -0.000
      -0.001  0.896 -0.001
      -0.000 -0.001  0.896
     ------------------------ ATOM  190 ------------------------
     Tr[ns(190)] =   5.38952
     eigenvalues:
       0.897  0.898  0.900
     eigenvectors (columns):
       0.170  0.797 -0.579
      -0.844 -0.186 -0.503
      -0.509  0.574  0.641
     occupation matrix ns (before diag.):
       0.898  0.001 -0.001
       0.001  0.898 -0.001
      -0.001 -0.001  0.898
     ------------------------ ATOM  191 ------------------------
     Tr[ns(191)] =   5.37366
     eigenvalues:
       0.895  0.896  0.896
     eigenvectors (columns):
      -0.178  0.787 -0.590
       0.455  0.598  0.660
       0.872 -0.151 -0.465
     occupation matrix ns (before diag.):
       0.896 -0.000  0.000
      -0.000  0.896 -0.000
       0.000 -0.000  0.895
     ------------------------ ATOM  192 ------------------------
     Tr[ns(192)] =   5.36503
     eigenvalues:
       0.893  0.894  0.896
     eigenvectors (columns):
      -0.484  0.683 -0.547
       0.532 -0.267 -0.803
      -0.695 -0.680 -0.234
     occupation matrix ns (before diag.):
       0.894  0.001 -0.000
       0.001  0.895  0.001
      -0.000  0.001  0.894
     ------------------------ ATOM  193 ------------------------
     Tr[ns(193)] =   4.17018
     eigenvalues:
       0.682  0.694  0.709
     eigenvectors (columns):
       0.747 -0.002  0.664
      -0.017 -1.000  0.017
      -0.664  0.024  0.747
     occupation matrix ns (before diag.):
       0.694  0.000  0.013
       0.000  0.694  0.000
       0.013  0.000  0.697
     ------------------------ ATOM  194 ------------------------
     Tr[ns(194)] =   3.94741
     eigenvalues:
       0.656  0.658  0.659
     eigenvectors (columns):
       0.232  0.925 -0.300
      -0.951  0.151 -0.269
       0.203 -0.348 -0.915
     occupation matrix ns (before diag.):
       0.658  0.001  0.000
       0.001  0.657  0.001
       0.000  0.001  0.659
     ------------------------ ATOM  195 ------------------------
     Tr[ns(195)] =   4.17675
     eigenvalues:
       0.684  0.696  0.708
     eigenvectors (columns):
      -0.722 -0.003 -0.692
       0.691  0.054 -0.721
      -0.039  0.999  0.037
     occupation matrix ns (before diag.):
       0.696  0.012 -0.001
       0.012  0.697  0.000
      -0.001  0.000  0.696
     ------------------------ ATOM  196 ------------------------
     Tr[ns(196)] =   4.05401
     eigenvalues:
       0.669  0.670  0.689
     eigenvectors (columns):
       0.787  0.093 -0.609
      -0.526  0.617 -0.586
       0.321  0.782  0.535
     occupation matrix ns (before diag.):
       0.676  0.007 -0.007
       0.007  0.676 -0.006
      -0.007 -0.006  0.675
     ------------------------ ATOM  197 ------------------------
     Tr[ns(197)] =   5.37293
     eigenvalues:
       0.895  0.895  0.896
     eigenvectors (columns):
       0.336 -0.488 -0.806
       0.939  0.112  0.324
      -0.068 -0.866  0.496
     occupation matrix ns (before diag.):
       0.896 -0.000 -0.000
      -0.000  0.895  0.000
      -0.000  0.000  0.896
     ------------------------ ATOM  198 ------------------------
     Tr[ns(198)] =   5.35869
     eigenvalues:
       0.892  0.893  0.894
     eigenvectors (columns):
       0.756  0.441  0.483
      -0.643  0.637  0.425
      -0.121 -0.632  0.766
     occupation matrix ns (before diag.):
       0.893  0.001  0.001
       0.001  0.893  0.000
       0.001  0.000  0.894
     ------------------------ ATOM  199 ------------------------
     Tr[ns(199)] =   5.36841
     eigenvalues:
       0.894  0.894  0.896
     eigenvectors (columns):
      -0.138 -0.857  0.496
       0.254 -0.515 -0.819
       0.957  0.013  0.289
     occupation matrix ns (before diag.):
       0.895 -0.001  0.000
      -0.001  0.896 -0.001
       0.000 -0.001  0.894
     ------------------------ ATOM  200 ------------------------
     Tr[ns(200)] =   5.35542
     eigenvalues:
       0.892  0.893  0.893
     eigenvectors (columns):
      -0.727 -0.460  0.510
       0.361 -0.887 -0.286
       0.584 -0.024  0.811
     occupation matrix ns (before diag.):
       0.892  0.000  0.000
       0.000  0.893 -0.000
       0.000 -0.000  0.893
     ------------------------ ATOM  201 ------------------------
     Tr[ns(201)] =   4.06285
     eigenvalues:
       0.669  0.671  0.691
     eigenvectors (columns):
       0.224  0.763 -0.606
       0.576 -0.606 -0.550
       0.786  0.226  0.575
     occupation matrix ns (before diag.):
       0.678  0.007 -0.007
       0.007  0.676 -0.007
      -0.007 -0.007  0.677
     ------------------------ ATOM  202 ------------------------
     Tr[ns(202)] =   4.07202
     eigenvalues:
       0.671  0.672  0.692
     eigenvectors (columns):
      -0.596  0.603  0.529
       0.293  0.778 -0.556
       0.747  0.177  0.641
     occupation matrix ns (before diag.):
       0.678 -0.006  0.007
      -0.006  0.678 -0.007
       0.007 -0.007  0.680
     ------------------------ ATOM  203 ------------------------
     Tr[ns(203)] =   4.05195
     eigenvalues:
       0.668  0.669  0.689
     eigenvectors (columns):
       0.316  0.758 -0.571
      -0.788 -0.126 -0.603
      -0.528  0.640  0.557
     occupation matrix ns (before diag.):
       0.675  0.007 -0.006
       0.007  0.676 -0.007
      -0.006 -0.007  0.675
     ------------------------ ATOM  204 ------------------------
     Tr[ns(204)] =   4.05256
     eigenvalues:
       0.668  0.669  0.689
     eigenvectors (columns):
      -0.477  0.624 -0.619
       0.285  0.776  0.562
      -0.831 -0.092  0.548
     occupation matrix ns (before diag.):
       0.677 -0.007 -0.007
      -0.007  0.675  0.007
      -0.007  0.007  0.674
     ------------------------ ATOM  205 ------------------------
     Tr[ns(205)] =   5.36883
     eigenvalues:
       0.894  0.894  0.896
     eigenvectors (columns):
      -0.249  0.420 -0.873
       0.646 -0.600 -0.473
      -0.722 -0.681 -0.121
     occupation matrix ns (before diag.):
       0.896  0.001  0.000
       0.001  0.895  0.000
       0.000  0.000  0.894
     ------------------------ ATOM  206 ------------------------
     Tr[ns(206)] =   5.36660
     eigenvalues:
       0.893  0.894  0.896
     eigenvectors (columns):
      -0.852  0.359 -0.382
       0.229  0.910  0.346
      -0.471 -0.207  0.857
     occupation matrix ns (before diag.):
       0.894 -0.000 -0.001
      -0.000  0.894  0.001
      -0.001  0.001  0.895
     ------------------------ ATOM  207 ------------------------
     Tr[ns(207)] =   5.36231
     eigenvalues:
       0.893  0.894  0.895
     eigenvectors (columns):
       0.959 -0.112 -0.260
      -0.164  0.528 -0.833
       0.231  0.842  0.488
     occupation matrix ns (before diag.):
       0.893  0.000 -0.000
       0.000  0.894 -0.000
      -0.000 -0.000  0.894
     ------------------------ ATOM  208 ------------------------
     Tr[ns(208)] =   5.38208
     eigenvalues:
       0.896  0.897  0.898
     eigenvectors (columns):
       0.087  0.376 -0.923
      -0.788 -0.541 -0.295
      -0.609  0.753  0.249
     occupation matrix ns (before diag.):
       0.898  0.000 -0.000
       0.000  0.896 -0.001
      -0.000 -0.001  0.897
     ------------------------ ATOM  209 ------------------------
     Tr[ns(209)] =   4.20073
     eigenvalues:
       0.689  0.699  0.713
     eigenvectors (columns):
       0.062  0.998  0.001
       0.725 -0.045  0.687
      -0.686  0.042  0.726
     occupation matrix ns (before diag.):
       0.699 -0.000  0.000
      -0.000  0.700  0.012
       0.000  0.012  0.702
     ------------------------ ATOM  210 ------------------------
     Tr[ns(210)] =   4.16953
     eigenvalues:
       0.683  0.694  0.708
     eigenvectors (columns):
      -0.708  0.013 -0.706
       0.706 -0.015 -0.708
       0.020  1.000 -0.002
     occupation matrix ns (before diag.):
       0.695  0.013  0.000
       0.013  0.695 -0.000
       0.000 -0.000  0.694
     ------------------------ ATOM  211 ------------------------
     Tr[ns(211)] =   4.18831
     eigenvalues:
       0.686  0.698  0.710
     eigenvectors (columns):
       0.705  0.064 -0.706
       0.705  0.034  0.708
      -0.069  0.997  0.021
     occupation matrix ns (before diag.):
       0.698 -0.012  0.000
      -0.012  0.698  0.001
       0.000  0.001  0.698
     ------------------------ ATOM  212 ------------------------
     Tr[ns(212)] =   4.07218
     eigenvalues:
       0.672  0.672  0.692
     eigenvectors (columns):
       0.450  0.700  0.554
      -0.824  0.087  0.560
       0.344 -0.709  0.616
     occupation matrix ns (before diag.):
       0.678  0.006  0.007
       0.006  0.678  0.007
       0.007  0.007  0.680
     ------------------------ ATOM  213 ------------------------
     Tr[ns(213)] =   5.39191
     eigenvalues:
       0.897  0.899  0.900
     eigenvectors (columns):
       0.201 -0.971  0.128
       0.979  0.196 -0.048
       0.021  0.135  0.991
     occupation matrix ns (before diag.):
       0.899 -0.000  0.000
      -0.000  0.897 -0.000
       0.000 -0.000  0.900
     ------------------------ ATOM  214 ------------------------
     Tr[ns(214)] =   5.36365
     eigenvalues:
       0.893  0.894  0.895
     eigenvectors (columns):
      -0.015  0.604 -0.797
       0.538  0.677  0.503
       0.843 -0.421 -0.335
     occupation matrix ns (before diag.):
       0.895 -0.000  0.000
      -0.000  0.894 -0.001
       0.000 -0.001  0.893
     ------------------------ ATOM  215 ------------------------
     Tr[ns(215)] =   5.38596
     eigenvalues:
       0.897  0.898  0.899
     eigenvectors (columns):
       0.941 -0.147 -0.306
       0.098 -0.745  0.660
       0.325  0.650  0.687
     occupation matrix ns (before diag.):
       0.897 -0.000 -0.001
      -0.000  0.898  0.000
      -0.001  0.000  0.898
     ------------------------ ATOM  216 ------------------------
     Tr[ns(216)] =   5.36593
     eigenvalues:
       0.892  0.894  0.896
     eigenvectors (columns):
      -0.642 -0.210 -0.738
      -0.577 -0.501  0.645
      -0.505  0.839  0.200
     occupation matrix ns (before diag.):
       0.895 -0.002 -0.001
      -0.002  0.895 -0.000
      -0.001 -0.000  0.894

     Number of occupied Hubbard levels = 1018.4948

     total cpu time spent up to now is     2185.3 secs

     total energy              =  -36448.01710874 Ry
     estimated scf accuracy    <       0.01461945 Ry

     iteration #  2     ecut=   120.00 Ry     beta= 0.65
     Davidson diagonalization with overlap
     ethr =  4.83E-07,  avg # of iterations =  6.0

     total cpu time spent up to now is     2244.3 secs

     total energy              =  -36448.01784948 Ry
     estimated scf accuracy    <       0.02972853 Ry

     iteration #  3     ecut=   120.00 Ry     beta= 0.65
     Davidson diagonalization with overlap
     ethr =  4.83E-07,  avg # of iterations =  6.0

     total cpu time spent up to now is     2293.4 secs

     total energy              =  -36448.02235289 Ry
     estimated scf accuracy    <       0.00529001 Ry

     iteration #  4     ecut=   120.00 Ry     beta= 0.65
     Davidson diagonalization with overlap
     ethr =  1.75E-07,  avg # of iterations =  6.0

     total cpu time spent up to now is     2341.9 secs

     total energy              =  -36448.02329148 Ry
     estimated scf accuracy    <       0.00227803 Ry

     iteration #  5     ecut=   120.00 Ry     beta= 0.65
     Davidson diagonalization with overlap
     ethr =  7.53E-08,  avg # of iterations =  6.0

     total cpu time spent up to now is     2389.3 secs

     total energy              =  -36448.02358111 Ry
     estimated scf accuracy    <       0.00097243 Ry

     iteration #  6     ecut=   120.00 Ry     beta= 0.65
     Davidson diagonalization with overlap
     ethr =  3.22E-08,  avg # of iterations =  6.0

     total cpu time spent up to now is     2435.1 secs

     total energy              =  -36448.02373448 Ry
     estimated scf accuracy    <       0.00007753 Ry

     iteration #  7     ecut=   120.00 Ry     beta= 0.65
     Davidson diagonalization with overlap
