
     Program PWSCF v.7.3.1 starts on  7Apr2026 at 12:52:48 

     This program is part of the open-source Quantum ESPRESSO suite
     for quantum simulation of materials; please cite
         "P. Giannozzi et al., J. Phys.:Condens. Matter 21 395502 (2009);
         "P. Giannozzi et al., J. Phys.:Condens. Matter 29 465901 (2017);
         "P. Giannozzi et al., J. Chem. Phys. 152 154105 (2020);
          URL http://www.quantum-espresso.org", 
     in publications or presentations arising from this work. More details at
     http://www.quantum-espresso.org/quote

     Parallel version (MPI), running on   640 processors

     MPI processes distributed on     5 nodes
     481928 MiB available memory on the printing compute node when the environment starts

     Reading input from In1.0Ga0.0As0.75Sb0.25_cube_3x3x3.4.scf.in
Warning: card &CELL ignored
Warning: card   CELL_DOFREE = 'ALL', ignored
Warning: card / ignored

     Current dimensions of program PWSCF are:
     Max number of different atomic species (ntypx) = 10
     Max number of k-points (npk) =  40000
     Max angular momentum in pseudopotentials (lmaxx) =  4

     K-points division:     npool     =       8
     R & G space division:  proc/nbgrp/npool/nimage =      80
     Subspace diagonalization in iterative solution of the eigenvalue problem:
     one sub-group per band group will be used
     custom distributed-memory algorithm (size of sub-group:  8*  8 procs)


     Parallelization info
     --------------------
     sticks:   dense  smooth     PW     G-vecs:    dense   smooth      PW
     Min         589     589    151                96239    96239   12547
     Max         590     590    152                96246    96246   12552
     Sum       47161   47161  12109              7699269  7699269 1003865

     Using Slab Decomposition



     bravais-lattice index     =            1
     lattice parameter (alat)  =      35.1307  a.u.
     unit-cell volume          =   43357.0128 (a.u.)^3
     number of atoms/cell      =          216
     number of atomic types    =            4
     number of electrons       =      3024.00
     number of Kohn-Sham states=         2160
     kinetic-energy cutoff     =     120.0000  Ry
     charge density cutoff     =     480.0000  Ry
     scf convergence threshold =      1.0E-05
     mixing beta               =       0.6500
     number of iterations used =            8  plain     mixing
     Exchange-correlation= PBE
                           (   1   4   3   4   0   0   0)
     Hubbard projectors: atomic
     Hubbard parameters of DFT+U (Dudarev formulation) in eV:
     U(As-4p) =  3.2600
     U(Ga-4p) = -3.2650
     U(In-5p) = -0.9725
     U(Sb-5p) =  3.1600

     Internal variables: lda_plus_u =T, lda_plus_u_kind = 0

     celldm(1)=  35.130671  celldm(2)=   0.000000  celldm(3)=   0.000000
     celldm(4)=   0.000000  celldm(5)=   0.000000  celldm(6)=   0.000000

     crystal axes: (cart. coord. in units of alat)
               a(1) = (   1.000000   0.000000   0.000000 )  
               a(2) = (   0.000000   1.000000   0.000000 )  
               a(3) = (   0.000000   0.000000   1.000000 )  

     reciprocal axes: (cart. coord. in units 2 pi/alat)
               b(1) = (  1.000000  0.000000  0.000000 )  
               b(2) = (  0.000000  1.000000  0.000000 )  
               b(3) = (  0.000000  0.000000  1.000000 )  


     PseudoPot. # 1 for As read from file:
     /work/i254/i254/gentles/data/pseudos/As.pbe.NC-SR.standard.v0.5.UPF
     MD5 check sum: bfe1a874457ce592347346129958e7cf
     Pseudo is Norm-conserving + core correction, Zval = 15.0
     Generated using ONCVPSP code by D. R. Hamann
     Using radial grid of 1358 points,  6 beta functions with: 
                l(1) =   0
                l(2) =   0
                l(3) =   1
                l(4) =   1
                l(5) =   2
                l(6) =   2

     PseudoPot. # 2 for Ga read from file:
     /work/i254/i254/gentles/data/pseudos/Ga.pbe.NC-SR.standard.v0.5.UPF
     MD5 check sum: 2bb81bf6f0a8d9832cf3329850435ecf
     Pseudo is Norm-conserving + core correction, Zval = 13.0
     Generated using ONCVPSP code by D. R. Hamann
     Using radial grid of 1902 points,  6 beta functions with: 
                l(1) =   0
                l(2) =   0
                l(3) =   1
                l(4) =   1
                l(5) =   2
                l(6) =   2

     PseudoPot. # 3 for In read from file:
     /work/i254/i254/gentles/data/pseudos/In.pbe.NC-SR.standard.v0.5.UPF
     MD5 check sum: 835f4bf908c982ff75c88e16816a8d7f
     Pseudo is Norm-conserving + core correction, Zval = 13.0
     Generated using ONCVPSP code by D. R. Hamann
     Using radial grid of 1964 points,  6 beta functions with: 
                l(1) =   0
                l(2) =   0
                l(3) =   1
                l(4) =   1
                l(5) =   2
                l(6) =   2

     PseudoPot. # 4 for Sb read from file:
     /work/i254/i254/gentles/data/pseudos/Sb.pbe.NC-SR.standard.v0.5.UPF
     MD5 check sum: 127f69b6101c45666faeae1b5d611565
     Pseudo is Norm-conserving + core correction, Zval = 15.0
     Generated using ONCVPSP code by D. R. Hamann
     Using radial grid of 1434 points,  6 beta functions with: 
                l(1) =   0
                l(2) =   0
                l(3) =   1
                l(4) =   1
                l(5) =   2
                l(6) =   2

     atomic species   valence    mass     pseudopotential
     As               15.00    74.92160     As( 1.00)
     Ga               13.00    69.72300     Ga( 1.00)
     In               13.00   114.81800     In( 1.00)
     Sb               15.00   121.76000     Sb( 1.00)

     No symmetry found



   Cartesian axes

     site n.     atom                  positions (alat units)
         1        In     tau(   1) = (   0.0023190  -0.0030710   0.0001660  )
         2        In     tau(   2) = (  -0.0012020   0.1612150   0.1623840  )
         3        In     tau(   3) = (   0.1678800  -0.0010050   0.1664670  )
         4        In     tau(   4) = (   0.1711770   0.1620770   0.0054730  )
         5        As     tau(   5) = (   0.0845800   0.0793790   0.0832500  )
         6        Sb     tau(   6) = (   0.0829460   0.2505920   0.2484790  )
         7        As     tau(   7) = (   0.2520480   0.0820290   0.2477920  )
         8        As     tau(   8) = (   0.2526380   0.2484050   0.0844860  )
         9        In     tau(   9) = (   0.0003310  -0.0007380   0.3237570  )
        10        In     tau(  10) = (  -0.0095600   0.1654820   0.5000960  )
        11        In     tau(  11) = (   0.1677290  -0.0048280   0.5056190  )
        12        In     tau(  12) = (   0.1746670   0.1666560   0.3307100  )
        13        Sb     tau(  13) = (   0.0840510   0.0825360   0.4163820  )
        14        Sb     tau(  14) = (   0.0855870   0.2492100   0.5808740  )
        15        As     tau(  15) = (   0.2532840   0.0796540   0.5833950  )
        16        As     tau(  16) = (   0.2539610   0.2503720   0.4120820  )
        17        In     tau(  17) = (  -0.0026320  -0.0023630   0.6608010  )
        18        In     tau(  18) = (  -0.0039950   0.1609310   0.8397820  )
        19        In     tau(  19) = (   0.1710750  -0.0037800   0.8387870  )
        20        In     tau(  20) = (   0.1761520   0.1656620   0.6663120  )
        21        Sb     tau(  21) = (   0.0851040   0.0806670   0.7499430  )
        22        Sb     tau(  22) = (   0.0846910   0.2506370   0.9204430  )
        23        As     tau(  23) = (   0.2520490   0.0817860   0.9194140  )
        24        As     tau(  24) = (   0.2520210   0.2487940   0.7534190  )
        25        In     tau(  25) = (  -0.0029870   0.3374620   0.0055140  )
        26        In     tau(  26) = (   0.0046380   0.4960610   0.1729260  )
        27        In     tau(  27) = (   0.1706170   0.3359530   0.1620200  )
        28        In     tau(  28) = (   0.1669650   0.5004370  -0.0015690  )
        29        As     tau(  29) = (   0.0850620   0.4189220   0.0835960  )
        30        As     tau(  30) = (   0.0859790   0.5838190   0.2499330  )
        31        As     tau(  31) = (   0.2502900   0.4163610   0.2493150  )
        32        As     tau(  32) = (   0.2484160   0.5832120   0.0821030  )
        33        In     tau(  33) = (  -0.0025510   0.3351840   0.3388630  )
        34        In     tau(  34) = (   0.0105110   0.5019600   0.5010930  )
        35        In     tau(  35) = (   0.1686760   0.3330160   0.4892340  )
        36        In     tau(  36) = (   0.1676230   0.5000460   0.3314860  )
        37        As     tau(  37) = (   0.0852120   0.4182950   0.4136920  )
        38        As     tau(  38) = (   0.0848170   0.5884520   0.5854630  )
        39        Sb     tau(  39) = (   0.2493210   0.4191640   0.5822350  )
        40        As     tau(  40) = (   0.2468430   0.5824940   0.4167970  )
        41        In     tau(  41) = (   0.0064280   0.3375710   0.6717590  )
        42        In     tau(  42) = (   0.0020690   0.5013880   0.8348730  )
        43        In     tau(  43) = (   0.1709050   0.3364510   0.8318490  )
        44        In     tau(  44) = (   0.1636070   0.5063410   0.6700970  )
        45        As     tau(  45) = (   0.0865220   0.4207170   0.7534110  )
        46        As     tau(  46) = (   0.0875030   0.5839810   0.9146340  )
        47        As     tau(  47) = (   0.2515020   0.4169060   0.9174980  )
        48        As     tau(  48) = (   0.2492680   0.5854960   0.7506530  )
        49        In     tau(  49) = (   0.0113060   0.6680240   0.0000980  )
        50        In     tau(  50) = (   0.0008770   0.8345330   0.1648100  )
        51        In     tau(  51) = (   0.1666780   0.6657050   0.1659710  )
        52        In     tau(  52) = (   0.1663280   0.8338780   0.0009220  )
        53        As     tau(  53) = (   0.0867340   0.7517180   0.0853220  )
        54        As     tau(  54) = (   0.0852080   0.9155950   0.2469530  )
        55        As     tau(  55) = (   0.2450380   0.7510550   0.2488680  )
        56        As     tau(  56) = (   0.2485050   0.9178700   0.0813290  )
        57        In     tau(  57) = (   0.0042890   0.6715120   0.3277980  )
        58        In     tau(  58) = (   0.0052730   0.8282120   0.5012860  )
        59        In     tau(  59) = (   0.1670190   0.6677030   0.4994640  )
        60        In     tau(  60) = (   0.1666060   0.8355390   0.3336190  )
        61        As     tau(  61) = (   0.0864390   0.7498470   0.4146810  )
        62        As     tau(  62) = (   0.0839390   0.9123440   0.5852690  )
        63        As     tau(  63) = (   0.2480900   0.7509020   0.5826990  )
        64        As     tau(  64) = (   0.2489260   0.9173170   0.4183540  )
        65        In     tau(  65) = (  -0.0004410   0.6683400   0.6675800  )
        66        In     tau(  66) = (   0.0050090   0.8383430   0.8284460  )
        67        In     tau(  67) = (   0.1682120   0.6689940   0.8332270  )
        68        In     tau(  68) = (   0.1673790   0.8318870   0.6690130  )
        69        As     tau(  69) = (   0.0843780   0.7498870   0.7499330  )
        70        As     tau(  70) = (   0.0851290   0.9154610   0.9175870  )
        71        As     tau(  71) = (   0.2482140   0.7513900   0.9185590  )
        72        As     tau(  72) = (   0.2496010   0.9159140   0.7515790  )
        73        In     tau(  73) = (   0.3342930   0.0007650   0.0022280  )
        74        In     tau(  74) = (   0.3352390   0.1661740   0.1672120  )
        75        In     tau(  75) = (   0.5039890   0.0064170   0.1634310  )
        76        In     tau(  76) = (   0.4987120   0.1660930  -0.0009640  )
        77        As     tau(  77) = (   0.4170390   0.0850230   0.0825160  )
        78        As     tau(  78) = (   0.4164980   0.2488970   0.2503870  )
        79        As     tau(  79) = (   0.5844320   0.0861770   0.2497020  )
        80        As     tau(  80) = (   0.5783510   0.2453410   0.0874490  )
        81        In     tau(  81) = (   0.3299900   0.0022820   0.3367330  )
        82        In     tau(  82) = (   0.3295760   0.1638770   0.4959630  )
        83        In     tau(  83) = (   0.4944470   0.0038600   0.5019350  )
        84        In     tau(  84) = (   0.4993970   0.1663480   0.3326950  )
        85        As     tau(  85) = (   0.4151770   0.0847340   0.4153210  )
        86        Sb     tau(  86) = (   0.4170790   0.2486770   0.5824970  )
        87        As     tau(  87) = (   0.5840930   0.0803280   0.5818200  )
        88        As     tau(  88) = (   0.5828930   0.2485380   0.4142710  )
        89        In     tau(  89) = (   0.3335090  -0.0012710   0.6700920  )
        90        In     tau(  90) = (   0.3330090   0.1646540   0.8356870  )
        91        In     tau(  91) = (   0.4977610  -0.0007530   0.8348960  )
        92        In     tau(  92) = (   0.5000270   0.1566120   0.6662170  )
        93        As     tau(  93) = (   0.4150510   0.0811610   0.7527700  )
        94        As     tau(  94) = (   0.4144640   0.2478430   0.9173310  )
        95        As     tau(  95) = (   0.5810160   0.0808540   0.9179890  )
        96        Sb     tau(  96) = (   0.5835640   0.2483690   0.7489030  )
        97        In     tau(  97) = (   0.3323690   0.3305100  -0.0007260  )
        98        In     tau(  98) = (   0.3292210   0.4964060   0.1624010  )
        99        In     tau(  99) = (   0.4972910   0.3316750   0.1675720  )
       100        In     tau( 100) = (   0.4886030   0.5004240   0.0012910  )
       101        As     tau( 101) = (   0.4129900   0.4125130   0.0836650  )
       102        Sb     tau( 102) = (   0.4154340   0.5835230   0.2492740  )
       103        As     tau( 103) = (   0.5809180   0.4114170   0.2524080  )
       104        Sb     tau( 104) = (   0.5813990   0.5854240   0.0826380  )
       105        In     tau( 105) = (   0.3356890   0.3342390   0.3311040  )
       106        In     tau( 106) = (   0.3373800   0.5035180   0.4941790  )
       107        In     tau( 107) = (   0.5041210   0.3352320   0.4953000  )
       108        In     tau( 108) = (   0.5034680   0.4971930   0.3361620  )
       109        As     tau( 109) = (   0.4181250   0.4164040   0.4149420  )
       110        As     tau( 110) = (   0.4160520   0.5814360   0.5826770  )
       111        As     tau( 111) = (   0.5846950   0.4172270   0.5798430  )
       112        As     tau( 112) = (   0.5834400   0.5820290   0.4194950  )
       113        In     tau( 113) = (   0.3320850   0.3327290   0.6729970  )
       114        In     tau( 114) = (   0.3303940   0.5014250   0.8331240  )
       115        In     tau( 115) = (   0.4912300   0.3319110   0.8325640  )
       116        In     tau( 116) = (   0.4947660   0.4928240   0.6622080  )
       117        As     tau( 117) = (   0.4126180   0.4176270   0.7513760  )
       118        As     tau( 118) = (   0.4093160   0.5832780   0.9182790  )
       119        Sb     tau( 119) = (   0.5798080   0.4159840   0.9182150  )
       120        Sb     tau( 120) = (   0.5809570   0.5808360   0.7475610  )
       121        In     tau( 121) = (   0.3302240   0.6677660   0.0005480  )
       122        In     tau( 122) = (   0.3257950   0.8310790   0.1628800  )
       123        In     tau( 123) = (   0.4984860   0.6771980   0.1664920  )
       124        In     tau( 124) = (   0.4945690   0.8392530   0.0053850  )
       125        As     tau( 125) = (   0.4118340   0.7525440   0.0824010  )
       126        Sb     tau( 126) = (   0.4148150   0.9182540   0.2463950  )
       127        As     tau( 127) = (   0.5858950   0.7518740   0.2495280  )
       128        As     tau( 128) = (   0.5833690   0.9193990   0.0838210  )
       129        In     tau( 129) = (   0.3227900   0.6670990   0.3327120  )
       130        In     tau( 130) = (   0.3305850   0.8377990   0.5044860  )
       131        In     tau( 131) = (   0.5022870   0.6627480   0.5045900  )
       132        In     tau( 132) = (   0.5027680   0.8314860   0.3297880  )
       133        Sb     tau( 133) = (   0.4147470   0.7486740   0.4183740  )
       134        As     tau( 134) = (   0.4156180   0.9193510   0.5852470  )
       135        As     tau( 135) = (   0.5832670   0.7524400   0.5805240  )
       136        Sb     tau( 136) = (   0.5851440   0.9197430   0.4172130  )
       137        In     tau( 137) = (   0.3290030   0.6634960   0.6616840  )
       138        In     tau( 138) = (   0.3295400   0.8367160   0.8381050  )
       139        In     tau( 139) = (   0.4950420   0.6628480   0.8384810  )
       140        In     tau( 140) = (   0.5034730   0.8375320   0.6631200  )
       141        Sb     tau( 141) = (   0.4144800   0.7512950   0.7486340  )
       142        As     tau( 142) = (   0.4146750   0.9186040   0.9186040  )
       143        Sb     tau( 143) = (   0.5831020   0.7531180   0.9198390  )
       144        As     tau( 144) = (   0.5816230   0.9208750   0.7489350  )
       145        In     tau( 145) = (   0.6661620   0.0013430   0.0006410  )
       146        In     tau( 146) = (   0.6671970   0.1667210   0.1671760  )
       147        In     tau( 147) = (   0.8328020  -0.0010610   0.1664010  )
       148        In     tau( 148) = (   0.8370320   0.1613130   0.0052650  )
       149        As     tau( 149) = (   0.7490890   0.0820930   0.0853580  )
       150        As     tau( 150) = (   0.7505830   0.2475900   0.2506620  )
       151        As     tau( 151) = (   0.9146290   0.0828640   0.2468540  )
       152        As     tau( 152) = (   0.9181700   0.2476180   0.0843920  )
       153        In     tau( 153) = (   0.6708140   0.0048470   0.3287830  )
       154        In     tau( 154) = (   0.6631480   0.1662130   0.4984610  )
       155        In     tau( 155) = (   0.8271290   0.0029500   0.5003680  )
       156        In     tau( 156) = (   0.8336730   0.1652700   0.3321560  )
       157        As     tau( 157) = (   0.7491170   0.0863820   0.4155540  )
       158        As     tau( 158) = (   0.7465950   0.2477490   0.5809500  )
       159        As     tau( 159) = (   0.9114300   0.0816220   0.5826470  )
       160        As     tau( 160) = (   0.9132900   0.2491040   0.4152890  )
       161        In     tau( 161) = (   0.6664430  -0.0014230   0.6655620  )
       162        In     tau( 162) = (   0.6669000   0.1566710   0.8333530  )
       163        In     tau( 163) = (   0.8345730  -0.0006340   0.8331380  )
       164        In     tau( 164) = (   0.8270930   0.1630820   0.6633740  )
       165        As     tau( 165) = (   0.7499810   0.0784960   0.7487110  )
       166        Sb     tau( 166) = (   0.7508830   0.2468140   0.9179800  )
       167        As     tau( 167) = (   0.9160950   0.0776520   0.9208750  )
       168        Sb     tau( 168) = (   0.9150350   0.2485700   0.7501000  )
       169        In     tau( 169) = (   0.6598650   0.3256040   0.0063840  )
       170        In     tau( 170) = (   0.6609550   0.4956680   0.1719600  )
       171        In     tau( 171) = (   0.8385440   0.3266750   0.1716630  )
       172        In     tau( 172) = (   0.8343870   0.4999360  -0.0051410  )
       173        Sb     tau( 173) = (   0.7513000   0.4132080   0.0856220  )
       174        Sb     tau( 174) = (   0.7493960   0.5852590   0.2526910  )
       175        As     tau( 175) = (   0.9184800   0.4131960   0.2519670  )
       176        Sb     tau( 176) = (   0.9206680   0.5836210   0.0842980  )
       177        In     tau( 177) = (   0.6666260   0.3297860   0.3322120  )
       178        In     tau( 178) = (   0.6689330   0.5002870   0.4989610  )
       179        In     tau( 179) = (   0.8283070   0.3280390   0.4966280  )
       180        In     tau( 180) = (   0.8337230   0.4919220   0.3342300  )
       181        As     tau( 181) = (   0.7473150   0.4130780   0.4159380  )
       182        As     tau( 182) = (   0.7493320   0.5853200   0.5815980  )
       183        Sb     tau( 183) = (   0.9165230   0.4170650   0.5818310  )
       184        Sb     tau( 184) = (   0.9196490   0.5846400   0.4158060  )
       185        In     tau( 185) = (   0.6696860   0.3367810   0.6624170  )
       186        In     tau( 186) = (   0.6717420   0.4991670   0.8333520  )
       187        In     tau( 187) = (   0.8330020   0.3408410   0.8333800  )
       188        In     tau( 188) = (   0.8314070   0.5060950   0.6678490  )
       189        As     tau( 189) = (   0.7512950   0.4194610   0.7475940  )
       190        As     tau( 190) = (   0.7530210   0.5827580   0.9148340  )
       191        As     tau( 191) = (   0.9189020   0.4185950   0.9163240  )
       192        As     tau( 192) = (   0.9197640   0.5825620   0.7497930  )
       193        In     tau( 193) = (   0.6767350   0.6675710   0.0001860  )
       194        In     tau( 194) = (   0.6654670   0.8360090   0.1662500  )
       195        In     tau( 195) = (   0.8350790   0.6750860   0.1666080  )
       196        In     tau( 196) = (   0.8308550   0.8398830   0.0028820  )
       197        As     tau( 197) = (   0.7510200   0.7552090   0.0846160  )
       198        As     tau( 198) = (   0.7498250   0.9167940   0.2481280  )
       199        As     tau( 199) = (   0.9187450   0.7541490   0.2488100  )
       200        As     tau( 200) = (   0.9177320   0.9184620   0.0842640  )
       201        In     tau( 201) = (   0.6618500   0.6698090   0.3394640  )
       202        In     tau( 202) = (   0.6715270   0.8327150   0.5030320  )
       203        In     tau( 203) = (   0.8319220   0.6705050   0.5025150  )
       204        In     tau( 204) = (   0.8290530   0.8302300   0.3302000  )
       205        As     tau( 205) = (   0.7491790   0.7504260   0.4178770  )
       206        As     tau( 206) = (   0.7510760   0.9174220   0.5846510  )
       207        As     tau( 207) = (   0.9186370   0.7507410   0.5837160  )
       208        Sb     tau( 208) = (   0.9162890   0.9156970   0.4163470  )
       209        In     tau( 209) = (   0.6644070   0.6686690   0.6593820  )
       210        In     tau( 210) = (   0.6659770   0.8427610   0.8326170  )
       211        In     tau( 211) = (   0.8365290   0.6617990   0.8325310  )
       212        In     tau( 212) = (   0.8399060   0.8385750   0.6634440  )
       213        Sb     tau( 213) = (   0.7514520   0.7523250   0.7479700  )
       214        As     tau( 214) = (   0.7497920   0.9212270   0.9173090  )
       215        Sb     tau( 215) = (   0.9194310   0.7531310   0.9173710  )
       216        As     tau( 216) = (   0.9188540   0.9194630   0.7490160  )

     number of k points=     8
                       cart. coord. in units 2pi/alat
        k(    1) = (   0.0000000   0.0000000   0.0000000), wk =   0.2500000
        k(    2) = (   0.0000000   0.0000000  -0.5000000), wk =   0.2500000
        k(    3) = (   0.0000000  -0.5000000  -0.5000000), wk =   0.2500000
        k(    4) = (  -0.5000000  -0.5000000  -0.5000000), wk =   0.2500000
        k(    5) = (  -0.5000000   0.0000000   0.0000000), wk =   0.2500000
        k(    6) = (   0.0000000  -0.5000000   0.0000000), wk =   0.2500000
        k(    7) = (  -0.5000000   0.0000000   0.5000000), wk =   0.2500000
        k(    8) = (  -0.5000000   0.5000000   0.0000000), wk =   0.2500000

     Dense  grid:  7699269 G-vectors     FFT dimensions: ( 250, 250, 250)

     Estimated max dynamical RAM per process >       2.96 GB

     Estimated total dynamical RAM >    1880.68 GB

     Initial potential from superposition of free atoms

     starting charge    3023.5448, renormalised to    3024.0000

     STARTING HUBBARD OCCUPATIONS:

     =================== HUBBARD OCCUPATIONS ===================
     ------------------------ ATOM    1 ------------------------
     Tr[ns(  1)] =   1.00000
     eigenvalues:
       0.167  0.167  0.167
     eigenvectors (columns):
       1.000  0.000  0.000
       0.000  1.000  0.000
       0.000  0.000  1.000
     occupation matrix ns (before diag.):
       0.167  0.000  0.000
       0.000  0.167  0.000
       0.000  0.000  0.167
     ------------------------ ATOM    2 ------------------------
     Tr[ns(  2)] =   1.00000
     eigenvalues:
       0.167  0.167  0.167
     eigenvectors (columns):
       1.000  0.000  0.000
       0.000  1.000  0.000
       0.000  0.000  1.000
     occupation matrix ns (before diag.):
       0.167  0.000  0.000
       0.000  0.167  0.000
       0.000  0.000  0.167
     ------------------------ ATOM    3 ------------------------
     Tr[ns(  3)] =   1.00000
     eigenvalues:
       0.167  0.167  0.167
     eigenvectors (columns):
       1.000  0.000  0.000
       0.000  1.000  0.000
       0.000  0.000  1.000
     occupation matrix ns (before diag.):
       0.167  0.000  0.000
       0.000  0.167  0.000
       0.000  0.000  0.167
     ------------------------ ATOM    4 ------------------------
     Tr[ns(  4)] =   1.00000
     eigenvalues:
       0.167  0.167  0.167
     eigenvectors (columns):
       1.000  0.000  0.000
       0.000  1.000  0.000
       0.000  0.000  1.000
     occupation matrix ns (before diag.):
       0.167  0.000  0.000
       0.000  0.167  0.000
       0.000  0.000  0.167
     ------------------------ ATOM    5 ------------------------
     Tr[ns(  5)] =   3.00000
     eigenvalues:
       0.500  0.500  0.500
     eigenvectors (columns):
       1.000  0.000  0.000
       0.000  1.000  0.000
       0.000  0.000  1.000
     occupation matrix ns (before diag.):
       0.500  0.000  0.000
       0.000  0.500  0.000
       0.000  0.000  0.500
     ------------------------ ATOM    6 ------------------------
     Tr[ns(  6)] =   3.00000
     eigenvalues:
       0.500  0.500  0.500
     eigenvectors (columns):
       1.000  0.000  0.000
       0.000  1.000  0.000
       0.000  0.000  1.000
     occupation matrix ns (before diag.):
       0.500  0.000  0.000
       0.000  0.500  0.000
       0.000  0.000  0.500
     ------------------------ ATOM    7 ------------------------
     Tr[ns(  7)] =   3.00000
     eigenvalues:
       0.500  0.500  0.500
     eigenvectors (columns):
       1.000  0.000  0.000
       0.000  1.000  0.000
       0.000  0.000  1.000
     occupation matrix ns (before diag.):
       0.500  0.000  0.000
       0.000  0.500  0.000
       0.000  0.000  0.500
     ------------------------ ATOM    8 ------------------------
     Tr[ns(  8)] =   3.00000
     eigenvalues:
       0.500  0.500  0.500
     eigenvectors (columns):
       1.000  0.000  0.000
       0.000  1.000  0.000
       0.000  0.000  1.000
     occupation matrix ns (before diag.):
       0.500  0.000  0.000
       0.000  0.500  0.000
       0.000  0.000  0.500
     ------------------------ ATOM    9 ------------------------
     Tr[ns(  9)] =   1.00000
     eigenvalues:
       0.167  0.167  0.167
     eigenvectors (columns):
       1.000  0.000  0.000
       0.000  1.000  0.000
       0.000  0.000  1.000
     occupation matrix ns (before diag.):
       0.167  0.000  0.000
       0.000  0.167  0.000
       0.000  0.000  0.167
     ------------------------ ATOM   10 ------------------------
     Tr[ns( 10)] =   1.00000
     eigenvalues:
       0.167  0.167  0.167
     eigenvectors (columns):
       1.000  0.000  0.000
       0.000  1.000  0.000
       0.000  0.000  1.000
     occupation matrix ns (before diag.):
       0.167  0.000  0.000
       0.000  0.167  0.000
       0.000  0.000  0.167
     ------------------------ ATOM   11 ------------------------
     Tr[ns( 11)] =   1.00000
     eigenvalues:
       0.167  0.167  0.167
     eigenvectors (columns):
       1.000  0.000  0.000
       0.000  1.000  0.000
       0.000  0.000  1.000
     occupation matrix ns (before diag.):
       0.167  0.000  0.000
       0.000  0.167  0.000
       0.000  0.000  0.167
     ------------------------ ATOM   12 ------------------------
     Tr[ns( 12)] =   1.00000
     eigenvalues:
       0.167  0.167  0.167
     eigenvectors (columns):
       1.000  0.000  0.000
       0.000  1.000  0.000
       0.000  0.000  1.000
     occupation matrix ns (before diag.):
       0.167  0.000  0.000
       0.000  0.167  0.000
       0.000  0.000  0.167
     ------------------------ ATOM   13 ------------------------
     Tr[ns( 13)] =   3.00000
     eigenvalues:
       0.500  0.500  0.500
     eigenvectors (columns):
       1.000  0.000  0.000
       0.000  1.000  0.000
       0.000  0.000  1.000
     occupation matrix ns (before diag.):
       0.500  0.000  0.000
       0.000  0.500  0.000
       0.000  0.000  0.500
     ------------------------ ATOM   14 ------------------------
     Tr[ns( 14)] =   3.00000
     eigenvalues:
       0.500  0.500  0.500
     eigenvectors (columns):
       1.000  0.000  0.000
       0.000  1.000  0.000
       0.000  0.000  1.000
     occupation matrix ns (before diag.):
       0.500  0.000  0.000
       0.000  0.500  0.000
       0.000  0.000  0.500
     ------------------------ ATOM   15 ------------------------
     Tr[ns( 15)] =   3.00000
     eigenvalues:
       0.500  0.500  0.500
     eigenvectors (columns):
       1.000  0.000  0.000
       0.000  1.000  0.000
       0.000  0.000  1.000
     occupation matrix ns (before diag.):
       0.500  0.000  0.000
       0.000  0.500  0.000
       0.000  0.000  0.500
     ------------------------ ATOM   16 ------------------------
     Tr[ns( 16)] =   3.00000
     eigenvalues:
       0.500  0.500  0.500
     eigenvectors (columns):
       1.000  0.000  0.000
       0.000  1.000  0.000
       0.000  0.000  1.000
     occupation matrix ns (before diag.):
       0.500  0.000  0.000
       0.000  0.500  0.000
       0.000  0.000  0.500
     ------------------------ ATOM   17 ------------------------
     Tr[ns( 17)] =   1.00000
     eigenvalues:
       0.167  0.167  0.167
     eigenvectors (columns):
       1.000  0.000  0.000
       0.000  1.000  0.000
       0.000  0.000  1.000
     occupation matrix ns (before diag.):
       0.167  0.000  0.000
       0.000  0.167  0.000
       0.000  0.000  0.167
     ------------------------ ATOM   18 ------------------------
     Tr[ns( 18)] =   1.00000
     eigenvalues:
       0.167  0.167  0.167
     eigenvectors (columns):
       1.000  0.000  0.000
       0.000  1.000  0.000
       0.000  0.000  1.000
     occupation matrix ns (before diag.):
       0.167  0.000  0.000
       0.000  0.167  0.000
       0.000  0.000  0.167
     ------------------------ ATOM   19 ------------------------
     Tr[ns( 19)] =   1.00000
     eigenvalues:
       0.167  0.167  0.167
     eigenvectors (columns):
       1.000  0.000  0.000
       0.000  1.000  0.000
       0.000  0.000  1.000
     occupation matrix ns (before diag.):
       0.167  0.000  0.000
       0.000  0.167  0.000
       0.000  0.000  0.167
     ------------------------ ATOM   20 ------------------------
     Tr[ns( 20)] =   1.00000
     eigenvalues:
       0.167  0.167  0.167
     eigenvectors (columns):
       1.000  0.000  0.000
       0.000  1.000  0.000
       0.000  0.000  1.000
     occupation matrix ns (before diag.):
       0.167  0.000  0.000
       0.000  0.167  0.000
       0.000  0.000  0.167
     ------------------------ ATOM   21 ------------------------
     Tr[ns( 21)] =   3.00000
     eigenvalues:
       0.500  0.500  0.500
     eigenvectors (columns):
       1.000  0.000  0.000
       0.000  1.000  0.000
       0.000  0.000  1.000
     occupation matrix ns (before diag.):
       0.500  0.000  0.000
       0.000  0.500  0.000
       0.000  0.000  0.500
     ------------------------ ATOM   22 ------------------------
     Tr[ns( 22)] =   3.00000
     eigenvalues:
       0.500  0.500  0.500
     eigenvectors (columns):
       1.000  0.000  0.000
       0.000  1.000  0.000
       0.000  0.000  1.000
     occupation matrix ns (before diag.):
       0.500  0.000  0.000
       0.000  0.500  0.000
       0.000  0.000  0.500
     ------------------------ ATOM   23 ------------------------
     Tr[ns( 23)] =   3.00000
     eigenvalues:
       0.500  0.500  0.500
     eigenvectors (columns):
       1.000  0.000  0.000
       0.000  1.000  0.000
       0.000  0.000  1.000
     occupation matrix ns (before diag.):
       0.500  0.000  0.000
       0.000  0.500  0.000
       0.000  0.000  0.500
     ------------------------ ATOM   24 ------------------------
     Tr[ns( 24)] =   3.00000
     eigenvalues:
       0.500  0.500  0.500
     eigenvectors (columns):
       1.000  0.000  0.000
       0.000  1.000  0.000
       0.000  0.000  1.000
     occupation matrix ns (before diag.):
       0.500  0.000  0.000
       0.000  0.500  0.000
       0.000  0.000  0.500
     ------------------------ ATOM   25 ------------------------
     Tr[ns( 25)] =   1.00000
     eigenvalues:
       0.167  0.167  0.167
     eigenvectors (columns):
       1.000  0.000  0.000
       0.000  1.000  0.000
       0.000  0.000  1.000
     occupation matrix ns (before diag.):
       0.167  0.000  0.000
       0.000  0.167  0.000
       0.000  0.000  0.167
     ------------------------ ATOM   26 ------------------------
     Tr[ns( 26)] =   1.00000
     eigenvalues:
       0.167  0.167  0.167
     eigenvectors (columns):
       1.000  0.000  0.000
       0.000  1.000  0.000
       0.000  0.000  1.000
     occupation matrix ns (before diag.):
       0.167  0.000  0.000
       0.000  0.167  0.000
       0.000  0.000  0.167
     ------------------------ ATOM   27 ------------------------
     Tr[ns( 27)] =   1.00000
     eigenvalues:
       0.167  0.167  0.167
     eigenvectors (columns):
       1.000  0.000  0.000
       0.000  1.000  0.000
       0.000  0.000  1.000
     occupation matrix ns (before diag.):
       0.167  0.000  0.000
       0.000  0.167  0.000
       0.000  0.000  0.167
     ------------------------ ATOM   28 ------------------------
     Tr[ns( 28)] =   1.00000
     eigenvalues:
       0.167  0.167  0.167
     eigenvectors (columns):
       1.000  0.000  0.000
       0.000  1.000  0.000
       0.000  0.000  1.000
     occupation matrix ns (before diag.):
       0.167  0.000  0.000
       0.000  0.167  0.000
       0.000  0.000  0.167
     ------------------------ ATOM   29 ------------------------
     Tr[ns( 29)] =   3.00000
     eigenvalues:
       0.500  0.500  0.500
     eigenvectors (columns):
       1.000  0.000  0.000
       0.000  1.000  0.000
       0.000  0.000  1.000
     occupation matrix ns (before diag.):
       0.500  0.000  0.000
       0.000  0.500  0.000
       0.000  0.000  0.500
     ------------------------ ATOM   30 ------------------------
     Tr[ns( 30)] =   3.00000
     eigenvalues:
       0.500  0.500  0.500
     eigenvectors (columns):
       1.000  0.000  0.000
       0.000  1.000  0.000
       0.000  0.000  1.000
     occupation matrix ns (before diag.):
       0.500  0.000  0.000
       0.000  0.500  0.000
       0.000  0.000  0.500
     ------------------------ ATOM   31 ------------------------
     Tr[ns( 31)] =   3.00000
     eigenvalues:
       0.500  0.500  0.500
     eigenvectors (columns):
       1.000  0.000  0.000
       0.000  1.000  0.000
       0.000  0.000  1.000
     occupation matrix ns (before diag.):
       0.500  0.000  0.000
       0.000  0.500  0.000
       0.000  0.000  0.500
     ------------------------ ATOM   32 ------------------------
     Tr[ns( 32)] =   3.00000
     eigenvalues:
       0.500  0.500  0.500
     eigenvectors (columns):
       1.000  0.000  0.000
       0.000  1.000  0.000
       0.000  0.000  1.000
     occupation matrix ns (before diag.):
       0.500  0.000  0.000
       0.000  0.500  0.000
       0.000  0.000  0.500
     ------------------------ ATOM   33 ------------------------
     Tr[ns( 33)] =   1.00000
     eigenvalues:
       0.167  0.167  0.167
     eigenvectors (columns):
       1.000  0.000  0.000
       0.000  1.000  0.000
       0.000  0.000  1.000
     occupation matrix ns (before diag.):
       0.167  0.000  0.000
       0.000  0.167  0.000
       0.000  0.000  0.167
     ------------------------ ATOM   34 ------------------------
     Tr[ns( 34)] =   1.00000
     eigenvalues:
       0.167  0.167  0.167
     eigenvectors (columns):
       1.000  0.000  0.000
       0.000  1.000  0.000
       0.000  0.000  1.000
     occupation matrix ns (before diag.):
       0.167  0.000  0.000
       0.000  0.167  0.000
       0.000  0.000  0.167
     ------------------------ ATOM   35 ------------------------
     Tr[ns( 35)] =   1.00000
     eigenvalues:
       0.167  0.167  0.167
     eigenvectors (columns):
       1.000  0.000  0.000
       0.000  1.000  0.000
       0.000  0.000  1.000
     occupation matrix ns (before diag.):
       0.167  0.000  0.000
       0.000  0.167  0.000
       0.000  0.000  0.167
     ------------------------ ATOM   36 ------------------------
     Tr[ns( 36)] =   1.00000
     eigenvalues:
       0.167  0.167  0.167
     eigenvectors (columns):
       1.000  0.000  0.000
       0.000  1.000  0.000
       0.000  0.000  1.000
     occupation matrix ns (before diag.):
       0.167  0.000  0.000
       0.000  0.167  0.000
       0.000  0.000  0.167
     ------------------------ ATOM   37 ------------------------
     Tr[ns( 37)] =   3.00000
     eigenvalues:
       0.500  0.500  0.500
     eigenvectors (columns):
       1.000  0.000  0.000
       0.000  1.000  0.000
       0.000  0.000  1.000
     occupation matrix ns (before diag.):
       0.500  0.000  0.000
       0.000  0.500  0.000
       0.000  0.000  0.500
     ------------------------ ATOM   38 ------------------------
     Tr[ns( 38)] =   3.00000
     eigenvalues:
       0.500  0.500  0.500
     eigenvectors (columns):
       1.000  0.000  0.000
       0.000  1.000  0.000
       0.000  0.000  1.000
     occupation matrix ns (before diag.):
       0.500  0.000  0.000
       0.000  0.500  0.000
       0.000  0.000  0.500
     ------------------------ ATOM   39 ------------------------
     Tr[ns( 39)] =   3.00000
     eigenvalues:
       0.500  0.500  0.500
     eigenvectors (columns):
       1.000  0.000  0.000
       0.000  1.000  0.000
       0.000  0.000  1.000
     occupation matrix ns (before diag.):
       0.500  0.000  0.000
       0.000  0.500  0.000
       0.000  0.000  0.500
     ------------------------ ATOM   40 ------------------------
     Tr[ns( 40)] =   3.00000
     eigenvalues:
       0.500  0.500  0.500
     eigenvectors (columns):
       1.000  0.000  0.000
       0.000  1.000  0.000
       0.000  0.000  1.000
     occupation matrix ns (before diag.):
       0.500  0.000  0.000
       0.000  0.500  0.000
       0.000  0.000  0.500
     ------------------------ ATOM   41 ------------------------
     Tr[ns( 41)] =   1.00000
     eigenvalues:
       0.167  0.167  0.167
     eigenvectors (columns):
       1.000  0.000  0.000
       0.000  1.000  0.000
       0.000  0.000  1.000
     occupation matrix ns (before diag.):
       0.167  0.000  0.000
       0.000  0.167  0.000
       0.000  0.000  0.167
     ------------------------ ATOM   42 ------------------------
     Tr[ns( 42)] =   1.00000
     eigenvalues:
       0.167  0.167  0.167
     eigenvectors (columns):
       1.000  0.000  0.000
       0.000  1.000  0.000
       0.000  0.000  1.000
     occupation matrix ns (before diag.):
       0.167  0.000  0.000
       0.000  0.167  0.000
       0.000  0.000  0.167
     ------------------------ ATOM   43 ------------------------
     Tr[ns( 43)] =   1.00000
     eigenvalues:
       0.167  0.167  0.167
     eigenvectors (columns):
       1.000  0.000  0.000
       0.000  1.000  0.000
       0.000  0.000  1.000
     occupation matrix ns (before diag.):
       0.167  0.000  0.000
       0.000  0.167  0.000
       0.000  0.000  0.167
     ------------------------ ATOM   44 ------------------------
     Tr[ns( 44)] =   1.00000
     eigenvalues:
       0.167  0.167  0.167
     eigenvectors (columns):
       1.000  0.000  0.000
       0.000  1.000  0.000
       0.000  0.000  1.000
     occupation matrix ns (before diag.):
       0.167  0.000  0.000
       0.000  0.167  0.000
       0.000  0.000  0.167
     ------------------------ ATOM   45 ------------------------
     Tr[ns( 45)] =   3.00000
     eigenvalues:
       0.500  0.500  0.500
     eigenvectors (columns):
       1.000  0.000  0.000
       0.000  1.000  0.000
       0.000  0.000  1.000
     occupation matrix ns (before diag.):
       0.500  0.000  0.000
       0.000  0.500  0.000
       0.000  0.000  0.500
     ------------------------ ATOM   46 ------------------------
     Tr[ns( 46)] =   3.00000
     eigenvalues:
       0.500  0.500  0.500
     eigenvectors (columns):
       1.000  0.000  0.000
       0.000  1.000  0.000
       0.000  0.000  1.000
     occupation matrix ns (before diag.):
       0.500  0.000  0.000
       0.000  0.500  0.000
       0.000  0.000  0.500
     ------------------------ ATOM   47 ------------------------
     Tr[ns( 47)] =   3.00000
     eigenvalues:
       0.500  0.500  0.500
     eigenvectors (columns):
       1.000  0.000  0.000
       0.000  1.000  0.000
       0.000  0.000  1.000
     occupation matrix ns (before diag.):
       0.500  0.000  0.000
       0.000  0.500  0.000
       0.000  0.000  0.500
     ------------------------ ATOM   48 ------------------------
     Tr[ns( 48)] =   3.00000
     eigenvalues:
       0.500  0.500  0.500
     eigenvectors (columns):
       1.000  0.000  0.000
       0.000  1.000  0.000
       0.000  0.000  1.000
     occupation matrix ns (before diag.):
       0.500  0.000  0.000
       0.000  0.500  0.000
       0.000  0.000  0.500
     ------------------------ ATOM   49 ------------------------
     Tr[ns( 49)] =   1.00000
     eigenvalues:
       0.167  0.167  0.167
     eigenvectors (columns):
       1.000  0.000  0.000
       0.000  1.000  0.000
       0.000  0.000  1.000
     occupation matrix ns (before diag.):
       0.167  0.000  0.000
       0.000  0.167  0.000
       0.000  0.000  0.167
     ------------------------ ATOM   50 ------------------------
     Tr[ns( 50)] =   1.00000
     eigenvalues:
       0.167  0.167  0.167
     eigenvectors (columns):
       1.000  0.000  0.000
       0.000  1.000  0.000
       0.000  0.000  1.000
     occupation matrix ns (before diag.):
       0.167  0.000  0.000
       0.000  0.167  0.000
       0.000  0.000  0.167
     ------------------------ ATOM   51 ------------------------
     Tr[ns( 51)] =   1.00000
     eigenvalues:
       0.167  0.167  0.167
     eigenvectors (columns):
       1.000  0.000  0.000
       0.000  1.000  0.000
       0.000  0.000  1.000
     occupation matrix ns (before diag.):
       0.167  0.000  0.000
       0.000  0.167  0.000
       0.000  0.000  0.167
     ------------------------ ATOM   52 ------------------------
     Tr[ns( 52)] =   1.00000
     eigenvalues:
       0.167  0.167  0.167
     eigenvectors (columns):
       1.000  0.000  0.000
       0.000  1.000  0.000
       0.000  0.000  1.000
     occupation matrix ns (before diag.):
       0.167  0.000  0.000
       0.000  0.167  0.000
       0.000  0.000  0.167
     ------------------------ ATOM   53 ------------------------
     Tr[ns( 53)] =   3.00000
     eigenvalues:
       0.500  0.500  0.500
     eigenvectors (columns):
       1.000  0.000  0.000
       0.000  1.000  0.000
       0.000  0.000  1.000
     occupation matrix ns (before diag.):
       0.500  0.000  0.000
       0.000  0.500  0.000
       0.000  0.000  0.500
     ------------------------ ATOM   54 ------------------------
     Tr[ns( 54)] =   3.00000
     eigenvalues:
       0.500  0.500  0.500
     eigenvectors (columns):
       1.000  0.000  0.000
       0.000  1.000  0.000
       0.000  0.000  1.000
     occupation matrix ns (before diag.):
       0.500  0.000  0.000
       0.000  0.500  0.000
       0.000  0.000  0.500
     ------------------------ ATOM   55 ------------------------
     Tr[ns( 55)] =   3.00000
     eigenvalues:
       0.500  0.500  0.500
     eigenvectors (columns):
       1.000  0.000  0.000
       0.000  1.000  0.000
       0.000  0.000  1.000
     occupation matrix ns (before diag.):
       0.500  0.000  0.000
       0.000  0.500  0.000
       0.000  0.000  0.500
     ------------------------ ATOM   56 ------------------------
     Tr[ns( 56)] =   3.00000
     eigenvalues:
       0.500  0.500  0.500
     eigenvectors (columns):
       1.000  0.000  0.000
       0.000  1.000  0.000
       0.000  0.000  1.000
     occupation matrix ns (before diag.):
       0.500  0.000  0.000
       0.000  0.500  0.000
       0.000  0.000  0.500
     ------------------------ ATOM   57 ------------------------
     Tr[ns( 57)] =   1.00000
     eigenvalues:
       0.167  0.167  0.167
     eigenvectors (columns):
       1.000  0.000  0.000
       0.000  1.000  0.000
       0.000  0.000  1.000
     occupation matrix ns (before diag.):
       0.167  0.000  0.000
       0.000  0.167  0.000
       0.000  0.000  0.167
     ------------------------ ATOM   58 ------------------------
     Tr[ns( 58)] =   1.00000
     eigenvalues:
       0.167  0.167  0.167
     eigenvectors (columns):
       1.000  0.000  0.000
       0.000  1.000  0.000
       0.000  0.000  1.000
     occupation matrix ns (before diag.):
       0.167  0.000  0.000
       0.000  0.167  0.000
       0.000  0.000  0.167
     ------------------------ ATOM   59 ------------------------
     Tr[ns( 59)] =   1.00000
     eigenvalues:
       0.167  0.167  0.167
     eigenvectors (columns):
       1.000  0.000  0.000
       0.000  1.000  0.000
       0.000  0.000  1.000
     occupation matrix ns (before diag.):
       0.167  0.000  0.000
       0.000  0.167  0.000
       0.000  0.000  0.167
     ------------------------ ATOM   60 ------------------------
     Tr[ns( 60)] =   1.00000
     eigenvalues:
       0.167  0.167  0.167
     eigenvectors (columns):
       1.000  0.000  0.000
       0.000  1.000  0.000
       0.000  0.000  1.000
     occupation matrix ns (before diag.):
       0.167  0.000  0.000
       0.000  0.167  0.000
       0.000  0.000  0.167
     ------------------------ ATOM   61 ------------------------
     Tr[ns( 61)] =   3.00000
     eigenvalues:
       0.500  0.500  0.500
     eigenvectors (columns):
       1.000  0.000  0.000
       0.000  1.000  0.000
       0.000  0.000  1.000
     occupation matrix ns (before diag.):
       0.500  0.000  0.000
       0.000  0.500  0.000
       0.000  0.000  0.500
     ------------------------ ATOM   62 ------------------------
     Tr[ns( 62)] =   3.00000
     eigenvalues:
       0.500  0.500  0.500
     eigenvectors (columns):
       1.000  0.000  0.000
       0.000  1.000  0.000
       0.000  0.000  1.000
     occupation matrix ns (before diag.):
       0.500  0.000  0.000
       0.000  0.500  0.000
       0.000  0.000  0.500
     ------------------------ ATOM   63 ------------------------
     Tr[ns( 63)] =   3.00000
     eigenvalues:
       0.500  0.500  0.500
     eigenvectors (columns):
       1.000  0.000  0.000
       0.000  1.000  0.000
       0.000  0.000  1.000
     occupation matrix ns (before diag.):
       0.500  0.000  0.000
       0.000  0.500  0.000
       0.000  0.000  0.500
     ------------------------ ATOM   64 ------------------------
     Tr[ns( 64)] =   3.00000
     eigenvalues:
       0.500  0.500  0.500
     eigenvectors (columns):
       1.000  0.000  0.000
       0.000  1.000  0.000
       0.000  0.000  1.000
     occupation matrix ns (before diag.):
       0.500  0.000  0.000
       0.000  0.500  0.000
       0.000  0.000  0.500
     ------------------------ ATOM   65 ------------------------
     Tr[ns( 65)] =   1.00000
     eigenvalues:
       0.167  0.167  0.167
     eigenvectors (columns):
       1.000  0.000  0.000
       0.000  1.000  0.000
       0.000  0.000  1.000
     occupation matrix ns (before diag.):
       0.167  0.000  0.000
       0.000  0.167  0.000
       0.000  0.000  0.167
     ------------------------ ATOM   66 ------------------------
     Tr[ns( 66)] =   1.00000
     eigenvalues:
       0.167  0.167  0.167
     eigenvectors (columns):
       1.000  0.000  0.000
       0.000  1.000  0.000
       0.000  0.000  1.000
     occupation matrix ns (before diag.):
       0.167  0.000  0.000
       0.000  0.167  0.000
       0.000  0.000  0.167
     ------------------------ ATOM   67 ------------------------
     Tr[ns( 67)] =   1.00000
     eigenvalues:
       0.167  0.167  0.167
     eigenvectors (columns):
       1.000  0.000  0.000
       0.000  1.000  0.000
       0.000  0.000  1.000
     occupation matrix ns (before diag.):
       0.167  0.000  0.000
       0.000  0.167  0.000
       0.000  0.000  0.167
     ------------------------ ATOM   68 ------------------------
     Tr[ns( 68)] =   1.00000
     eigenvalues:
       0.167  0.167  0.167
     eigenvectors (columns):
       1.000  0.000  0.000
       0.000  1.000  0.000
       0.000  0.000  1.000
     occupation matrix ns (before diag.):
       0.167  0.000  0.000
       0.000  0.167  0.000
       0.000  0.000  0.167
     ------------------------ ATOM   69 ------------------------
     Tr[ns( 69)] =   3.00000
     eigenvalues:
       0.500  0.500  0.500
     eigenvectors (columns):
       1.000  0.000  0.000
       0.000  1.000  0.000
       0.000  0.000  1.000
     occupation matrix ns (before diag.):
       0.500  0.000  0.000
       0.000  0.500  0.000
       0.000  0.000  0.500
     ------------------------ ATOM   70 ------------------------
     Tr[ns( 70)] =   3.00000
     eigenvalues:
       0.500  0.500  0.500
     eigenvectors (columns):
       1.000  0.000  0.000
       0.000  1.000  0.000
       0.000  0.000  1.000
     occupation matrix ns (before diag.):
       0.500  0.000  0.000
       0.000  0.500  0.000
       0.000  0.000  0.500
     ------------------------ ATOM   71 ------------------------
     Tr[ns( 71)] =   3.00000
     eigenvalues:
       0.500  0.500  0.500
     eigenvectors (columns):
       1.000  0.000  0.000
       0.000  1.000  0.000
       0.000  0.000  1.000
     occupation matrix ns (before diag.):
       0.500  0.000  0.000
       0.000  0.500  0.000
       0.000  0.000  0.500
     ------------------------ ATOM   72 ------------------------
     Tr[ns( 72)] =   3.00000
     eigenvalues:
       0.500  0.500  0.500
     eigenvectors (columns):
       1.000  0.000  0.000
       0.000  1.000  0.000
       0.000  0.000  1.000
     occupation matrix ns (before diag.):
       0.500  0.000  0.000
       0.000  0.500  0.000
       0.000  0.000  0.500
     ------------------------ ATOM   73 ------------------------
     Tr[ns( 73)] =   1.00000
     eigenvalues:
       0.167  0.167  0.167
     eigenvectors (columns):
       1.000  0.000  0.000
       0.000  1.000  0.000
       0.000  0.000  1.000
     occupation matrix ns (before diag.):
       0.167  0.000  0.000
       0.000  0.167  0.000
       0.000  0.000  0.167
     ------------------------ ATOM   74 ------------------------
     Tr[ns( 74)] =   1.00000
     eigenvalues:
       0.167  0.167  0.167
     eigenvectors (columns):
       1.000  0.000  0.000
       0.000  1.000  0.000
       0.000  0.000  1.000
     occupation matrix ns (before diag.):
       0.167  0.000  0.000
       0.000  0.167  0.000
       0.000  0.000  0.167
     ------------------------ ATOM   75 ------------------------
     Tr[ns( 75)] =   1.00000
     eigenvalues:
       0.167  0.167  0.167
     eigenvectors (columns):
       1.000  0.000  0.000
       0.000  1.000  0.000
       0.000  0.000  1.000
     occupation matrix ns (before diag.):
       0.167  0.000  0.000
       0.000  0.167  0.000
       0.000  0.000  0.167
     ------------------------ ATOM   76 ------------------------
     Tr[ns( 76)] =   1.00000
     eigenvalues:
       0.167  0.167  0.167
     eigenvectors (columns):
       1.000  0.000  0.000
       0.000  1.000  0.000
       0.000  0.000  1.000
     occupation matrix ns (before diag.):
       0.167  0.000  0.000
       0.000  0.167  0.000
       0.000  0.000  0.167
     ------------------------ ATOM   77 ------------------------
     Tr[ns( 77)] =   3.00000
     eigenvalues:
       0.500  0.500  0.500
     eigenvectors (columns):
       1.000  0.000  0.000
       0.000  1.000  0.000
       0.000  0.000  1.000
     occupation matrix ns (before diag.):
       0.500  0.000  0.000
       0.000  0.500  0.000
       0.000  0.000  0.500
     ------------------------ ATOM   78 ------------------------
     Tr[ns( 78)] =   3.00000
     eigenvalues:
       0.500  0.500  0.500
     eigenvectors (columns):
       1.000  0.000  0.000
       0.000  1.000  0.000
       0.000  0.000  1.000
     occupation matrix ns (before diag.):
       0.500  0.000  0.000
       0.000  0.500  0.000
       0.000  0.000  0.500
     ------------------------ ATOM   79 ------------------------
     Tr[ns( 79)] =   3.00000
     eigenvalues:
       0.500  0.500  0.500
     eigenvectors (columns):
       1.000  0.000  0.000
       0.000  1.000  0.000
       0.000  0.000  1.000
     occupation matrix ns (before diag.):
       0.500  0.000  0.000
       0.000  0.500  0.000
       0.000  0.000  0.500
     ------------------------ ATOM   80 ------------------------
     Tr[ns( 80)] =   3.00000
     eigenvalues:
       0.500  0.500  0.500
     eigenvectors (columns):
       1.000  0.000  0.000
       0.000  1.000  0.000
       0.000  0.000  1.000
     occupation matrix ns (before diag.):
       0.500  0.000  0.000
       0.000  0.500  0.000
       0.000  0.000  0.500
     ------------------------ ATOM   81 ------------------------
     Tr[ns( 81)] =   1.00000
     eigenvalues:
       0.167  0.167  0.167
     eigenvectors (columns):
       1.000  0.000  0.000
       0.000  1.000  0.000
       0.000  0.000  1.000
     occupation matrix ns (before diag.):
       0.167  0.000  0.000
       0.000  0.167  0.000
       0.000  0.000  0.167
     ------------------------ ATOM   82 ------------------------
     Tr[ns( 82)] =   1.00000
     eigenvalues:
       0.167  0.167  0.167
     eigenvectors (columns):
       1.000  0.000  0.000
       0.000  1.000  0.000
       0.000  0.000  1.000
     occupation matrix ns (before diag.):
       0.167  0.000  0.000
       0.000  0.167  0.000
       0.000  0.000  0.167
     ------------------------ ATOM   83 ------------------------
     Tr[ns( 83)] =   1.00000
     eigenvalues:
       0.167  0.167  0.167
     eigenvectors (columns):
       1.000  0.000  0.000
       0.000  1.000  0.000
       0.000  0.000  1.000
     occupation matrix ns (before diag.):
       0.167  0.000  0.000
       0.000  0.167  0.000
       0.000  0.000  0.167
     ------------------------ ATOM   84 ------------------------
     Tr[ns( 84)] =   1.00000
     eigenvalues:
       0.167  0.167  0.167
     eigenvectors (columns):
       1.000  0.000  0.000
       0.000  1.000  0.000
       0.000  0.000  1.000
     occupation matrix ns (before diag.):
       0.167  0.000  0.000
       0.000  0.167  0.000
       0.000  0.000  0.167
     ------------------------ ATOM   85 ------------------------
     Tr[ns( 85)] =   3.00000
     eigenvalues:
       0.500  0.500  0.500
     eigenvectors (columns):
       1.000  0.000  0.000
       0.000  1.000  0.000
       0.000  0.000  1.000
     occupation matrix ns (before diag.):
       0.500  0.000  0.000
       0.000  0.500  0.000
       0.000  0.000  0.500
     ------------------------ ATOM   86 ------------------------
     Tr[ns( 86)] =   3.00000
     eigenvalues:
       0.500  0.500  0.500
     eigenvectors (columns):
       1.000  0.000  0.000
       0.000  1.000  0.000
       0.000  0.000  1.000
     occupation matrix ns (before diag.):
       0.500  0.000  0.000
       0.000  0.500  0.000
       0.000  0.000  0.500
     ------------------------ ATOM   87 ------------------------
     Tr[ns( 87)] =   3.00000
     eigenvalues:
       0.500  0.500  0.500
     eigenvectors (columns):
       1.000  0.000  0.000
       0.000  1.000  0.000
       0.000  0.000  1.000
     occupation matrix ns (before diag.):
       0.500  0.000  0.000
       0.000  0.500  0.000
       0.000  0.000  0.500
     ------------------------ ATOM   88 ------------------------
     Tr[ns( 88)] =   3.00000
     eigenvalues:
       0.500  0.500  0.500
     eigenvectors (columns):
       1.000  0.000  0.000
       0.000  1.000  0.000
       0.000  0.000  1.000
     occupation matrix ns (before diag.):
       0.500  0.000  0.000
       0.000  0.500  0.000
       0.000  0.000  0.500
     ------------------------ ATOM   89 ------------------------
     Tr[ns( 89)] =   1.00000
     eigenvalues:
       0.167  0.167  0.167
     eigenvectors (columns):
       1.000  0.000  0.000
       0.000  1.000  0.000
       0.000  0.000  1.000
     occupation matrix ns (before diag.):
       0.167  0.000  0.000
       0.000  0.167  0.000
       0.000  0.000  0.167
     ------------------------ ATOM   90 ------------------------
     Tr[ns( 90)] =   1.00000
     eigenvalues:
       0.167  0.167  0.167
     eigenvectors (columns):
       1.000  0.000  0.000
       0.000  1.000  0.000
       0.000  0.000  1.000
     occupation matrix ns (before diag.):
       0.167  0.000  0.000
       0.000  0.167  0.000
       0.000  0.000  0.167
     ------------------------ ATOM   91 ------------------------
     Tr[ns( 91)] =   1.00000
     eigenvalues:
       0.167  0.167  0.167
     eigenvectors (columns):
       1.000  0.000  0.000
       0.000  1.000  0.000
       0.000  0.000  1.000
     occupation matrix ns (before diag.):
       0.167  0.000  0.000
       0.000  0.167  0.000
       0.000  0.000  0.167
     ------------------------ ATOM   92 ------------------------
     Tr[ns( 92)] =   1.00000
     eigenvalues:
       0.167  0.167  0.167
     eigenvectors (columns):
       1.000  0.000  0.000
       0.000  1.000  0.000
       0.000  0.000  1.000
     occupation matrix ns (before diag.):
       0.167  0.000  0.000
       0.000  0.167  0.000
       0.000  0.000  0.167
     ------------------------ ATOM   93 ------------------------
     Tr[ns( 93)] =   3.00000
     eigenvalues:
       0.500  0.500  0.500
     eigenvectors (columns):
       1.000  0.000  0.000
       0.000  1.000  0.000
       0.000  0.000  1.000
     occupation matrix ns (before diag.):
       0.500  0.000  0.000
       0.000  0.500  0.000
       0.000  0.000  0.500
     ------------------------ ATOM   94 ------------------------
     Tr[ns( 94)] =   3.00000
     eigenvalues:
       0.500  0.500  0.500
     eigenvectors (columns):
       1.000  0.000  0.000
       0.000  1.000  0.000
       0.000  0.000  1.000
     occupation matrix ns (before diag.):
       0.500  0.000  0.000
       0.000  0.500  0.000
       0.000  0.000  0.500
     ------------------------ ATOM   95 ------------------------
     Tr[ns( 95)] =   3.00000
     eigenvalues:
       0.500  0.500  0.500
     eigenvectors (columns):
       1.000  0.000  0.000
       0.000  1.000  0.000
       0.000  0.000  1.000
     occupation matrix ns (before diag.):
       0.500  0.000  0.000
       0.000  0.500  0.000
       0.000  0.000  0.500
     ------------------------ ATOM   96 ------------------------
     Tr[ns( 96)] =   3.00000
     eigenvalues:
       0.500  0.500  0.500
     eigenvectors (columns):
       1.000  0.000  0.000
       0.000  1.000  0.000
       0.000  0.000  1.000
     occupation matrix ns (before diag.):
       0.500  0.000  0.000
       0.000  0.500  0.000
       0.000  0.000  0.500
     ------------------------ ATOM   97 ------------------------
     Tr[ns( 97)] =   1.00000
     eigenvalues:
       0.167  0.167  0.167
     eigenvectors (columns):
       1.000  0.000  0.000
       0.000  1.000  0.000
       0.000  0.000  1.000
     occupation matrix ns (before diag.):
       0.167  0.000  0.000
       0.000  0.167  0.000
       0.000  0.000  0.167
     ------------------------ ATOM   98 ------------------------
     Tr[ns( 98)] =   1.00000
     eigenvalues:
       0.167  0.167  0.167
     eigenvectors (columns):
       1.000  0.000  0.000
       0.000  1.000  0.000
       0.000  0.000  1.000
     occupation matrix ns (before diag.):
       0.167  0.000  0.000
       0.000  0.167  0.000
       0.000  0.000  0.167
     ------------------------ ATOM   99 ------------------------
     Tr[ns( 99)] =   1.00000
     eigenvalues:
       0.167  0.167  0.167
     eigenvectors (columns):
       1.000  0.000  0.000
       0.000  1.000  0.000
       0.000  0.000  1.000
     occupation matrix ns (before diag.):
       0.167  0.000  0.000
       0.000  0.167  0.000
       0.000  0.000  0.167
     ------------------------ ATOM  100 ------------------------
     Tr[ns(100)] =   1.00000
     eigenvalues:
       0.167  0.167  0.167
     eigenvectors (columns):
       1.000  0.000  0.000
       0.000  1.000  0.000
       0.000  0.000  1.000
     occupation matrix ns (before diag.):
       0.167  0.000  0.000
       0.000  0.167  0.000
       0.000  0.000  0.167
     ------------------------ ATOM  101 ------------------------
     Tr[ns(101)] =   3.00000
     eigenvalues:
       0.500  0.500  0.500
     eigenvectors (columns):
       1.000  0.000  0.000
       0.000  1.000  0.000
       0.000  0.000  1.000
     occupation matrix ns (before diag.):
       0.500  0.000  0.000
       0.000  0.500  0.000
       0.000  0.000  0.500
     ------------------------ ATOM  102 ------------------------
     Tr[ns(102)] =   3.00000
     eigenvalues:
       0.500  0.500  0.500
     eigenvectors (columns):
       1.000  0.000  0.000
       0.000  1.000  0.000
       0.000  0.000  1.000
     occupation matrix ns (before diag.):
       0.500  0.000  0.000
       0.000  0.500  0.000
       0.000  0.000  0.500
     ------------------------ ATOM  103 ------------------------
     Tr[ns(103)] =   3.00000
     eigenvalues:
       0.500  0.500  0.500
     eigenvectors (columns):
       1.000  0.000  0.000
       0.000  1.000  0.000
       0.000  0.000  1.000
     occupation matrix ns (before diag.):
       0.500  0.000  0.000
       0.000  0.500  0.000
       0.000  0.000  0.500
     ------------------------ ATOM  104 ------------------------
     Tr[ns(104)] =   3.00000
     eigenvalues:
       0.500  0.500  0.500
     eigenvectors (columns):
       1.000  0.000  0.000
       0.000  1.000  0.000
       0.000  0.000  1.000
     occupation matrix ns (before diag.):
       0.500  0.000  0.000
       0.000  0.500  0.000
       0.000  0.000  0.500
     ------------------------ ATOM  105 ------------------------
     Tr[ns(105)] =   1.00000
     eigenvalues:
       0.167  0.167  0.167
     eigenvectors (columns):
       1.000  0.000  0.000
       0.000  1.000  0.000
       0.000  0.000  1.000
     occupation matrix ns (before diag.):
       0.167  0.000  0.000
       0.000  0.167  0.000
       0.000  0.000  0.167
     ------------------------ ATOM  106 ------------------------
     Tr[ns(106)] =   1.00000
     eigenvalues:
       0.167  0.167  0.167
     eigenvectors (columns):
       1.000  0.000  0.000
       0.000  1.000  0.000
       0.000  0.000  1.000
     occupation matrix ns (before diag.):
       0.167  0.000  0.000
       0.000  0.167  0.000
       0.000  0.000  0.167
     ------------------------ ATOM  107 ------------------------
     Tr[ns(107)] =   1.00000
     eigenvalues:
       0.167  0.167  0.167
     eigenvectors (columns):
       1.000  0.000  0.000
       0.000  1.000  0.000
       0.000  0.000  1.000
     occupation matrix ns (before diag.):
       0.167  0.000  0.000
       0.000  0.167  0.000
       0.000  0.000  0.167
     ------------------------ ATOM  108 ------------------------
     Tr[ns(108)] =   1.00000
     eigenvalues:
       0.167  0.167  0.167
     eigenvectors (columns):
       1.000  0.000  0.000
       0.000  1.000  0.000
       0.000  0.000  1.000
     occupation matrix ns (before diag.):
       0.167  0.000  0.000
       0.000  0.167  0.000
       0.000  0.000  0.167
     ------------------------ ATOM  109 ------------------------
     Tr[ns(109)] =   3.00000
     eigenvalues:
       0.500  0.500  0.500
     eigenvectors (columns):
       1.000  0.000  0.000
       0.000  1.000  0.000
       0.000  0.000  1.000
     occupation matrix ns (before diag.):
       0.500  0.000  0.000
       0.000  0.500  0.000
       0.000  0.000  0.500
     ------------------------ ATOM  110 ------------------------
     Tr[ns(110)] =   3.00000
     eigenvalues:
       0.500  0.500  0.500
     eigenvectors (columns):
       1.000  0.000  0.000
       0.000  1.000  0.000
       0.000  0.000  1.000
     occupation matrix ns (before diag.):
       0.500  0.000  0.000
       0.000  0.500  0.000
       0.000  0.000  0.500
     ------------------------ ATOM  111 ------------------------
     Tr[ns(111)] =   3.00000
     eigenvalues:
       0.500  0.500  0.500
     eigenvectors (columns):
       1.000  0.000  0.000
       0.000  1.000  0.000
       0.000  0.000  1.000
     occupation matrix ns (before diag.):
       0.500  0.000  0.000
       0.000  0.500  0.000
       0.000  0.000  0.500
     ------------------------ ATOM  112 ------------------------
     Tr[ns(112)] =   3.00000
     eigenvalues:
       0.500  0.500  0.500
     eigenvectors (columns):
       1.000  0.000  0.000
       0.000  1.000  0.000
       0.000  0.000  1.000
     occupation matrix ns (before diag.):
       0.500  0.000  0.000
       0.000  0.500  0.000
       0.000  0.000  0.500
     ------------------------ ATOM  113 ------------------------
     Tr[ns(113)] =   1.00000
     eigenvalues:
       0.167  0.167  0.167
     eigenvectors (columns):
       1.000  0.000  0.000
       0.000  1.000  0.000
       0.000  0.000  1.000
     occupation matrix ns (before diag.):
       0.167  0.000  0.000
       0.000  0.167  0.000
       0.000  0.000  0.167
     ------------------------ ATOM  114 ------------------------
     Tr[ns(114)] =   1.00000
     eigenvalues:
       0.167  0.167  0.167
     eigenvectors (columns):
       1.000  0.000  0.000
       0.000  1.000  0.000
       0.000  0.000  1.000
     occupation matrix ns (before diag.):
       0.167  0.000  0.000
       0.000  0.167  0.000
       0.000  0.000  0.167
     ------------------------ ATOM  115 ------------------------
     Tr[ns(115)] =   1.00000
     eigenvalues:
       0.167  0.167  0.167
     eigenvectors (columns):
       1.000  0.000  0.000
       0.000  1.000  0.000
       0.000  0.000  1.000
     occupation matrix ns (before diag.):
       0.167  0.000  0.000
       0.000  0.167  0.000
       0.000  0.000  0.167
     ------------------------ ATOM  116 ------------------------
     Tr[ns(116)] =   1.00000
     eigenvalues:
       0.167  0.167  0.167
     eigenvectors (columns):
       1.000  0.000  0.000
       0.000  1.000  0.000
       0.000  0.000  1.000
     occupation matrix ns (before diag.):
       0.167  0.000  0.000
       0.000  0.167  0.000
       0.000  0.000  0.167
     ------------------------ ATOM  117 ------------------------
     Tr[ns(117)] =   3.00000
     eigenvalues:
       0.500  0.500  0.500
     eigenvectors (columns):
       1.000  0.000  0.000
       0.000  1.000  0.000
       0.000  0.000  1.000
     occupation matrix ns (before diag.):
       0.500  0.000  0.000
       0.000  0.500  0.000
       0.000  0.000  0.500
     ------------------------ ATOM  118 ------------------------
     Tr[ns(118)] =   3.00000
     eigenvalues:
       0.500  0.500  0.500
     eigenvectors (columns):
       1.000  0.000  0.000
       0.000  1.000  0.000
       0.000  0.000  1.000
     occupation matrix ns (before diag.):
       0.500  0.000  0.000
       0.000  0.500  0.000
       0.000  0.000  0.500
     ------------------------ ATOM  119 ------------------------
     Tr[ns(119)] =   3.00000
     eigenvalues:
       0.500  0.500  0.500
     eigenvectors (columns):
       1.000  0.000  0.000
       0.000  1.000  0.000
       0.000  0.000  1.000
     occupation matrix ns (before diag.):
       0.500  0.000  0.000
       0.000  0.500  0.000
       0.000  0.000  0.500
     ------------------------ ATOM  120 ------------------------
     Tr[ns(120)] =   3.00000
     eigenvalues:
       0.500  0.500  0.500
     eigenvectors (columns):
       1.000  0.000  0.000
       0.000  1.000  0.000
       0.000  0.000  1.000
     occupation matrix ns (before diag.):
       0.500  0.000  0.000
       0.000  0.500  0.000
       0.000  0.000  0.500
     ------------------------ ATOM  121 ------------------------
     Tr[ns(121)] =   1.00000
     eigenvalues:
       0.167  0.167  0.167
     eigenvectors (columns):
       1.000  0.000  0.000
       0.000  1.000  0.000
       0.000  0.000  1.000
     occupation matrix ns (before diag.):
       0.167  0.000  0.000
       0.000  0.167  0.000
       0.000  0.000  0.167
     ------------------------ ATOM  122 ------------------------
     Tr[ns(122)] =   1.00000
     eigenvalues:
       0.167  0.167  0.167
     eigenvectors (columns):
       1.000  0.000  0.000
       0.000  1.000  0.000
       0.000  0.000  1.000
     occupation matrix ns (before diag.):
       0.167  0.000  0.000
       0.000  0.167  0.000
       0.000  0.000  0.167
     ------------------------ ATOM  123 ------------------------
     Tr[ns(123)] =   1.00000
     eigenvalues:
       0.167  0.167  0.167
     eigenvectors (columns):
       1.000  0.000  0.000
       0.000  1.000  0.000
       0.000  0.000  1.000
     occupation matrix ns (before diag.):
       0.167  0.000  0.000
       0.000  0.167  0.000
       0.000  0.000  0.167
     ------------------------ ATOM  124 ------------------------
     Tr[ns(124)] =   1.00000
     eigenvalues:
       0.167  0.167  0.167
     eigenvectors (columns):
       1.000  0.000  0.000
       0.000  1.000  0.000
       0.000  0.000  1.000
     occupation matrix ns (before diag.):
       0.167  0.000  0.000
       0.000  0.167  0.000
       0.000  0.000  0.167
     ------------------------ ATOM  125 ------------------------
     Tr[ns(125)] =   3.00000
     eigenvalues:
       0.500  0.500  0.500
     eigenvectors (columns):
       1.000  0.000  0.000
       0.000  1.000  0.000
       0.000  0.000  1.000
     occupation matrix ns (before diag.):
       0.500  0.000  0.000
       0.000  0.500  0.000
       0.000  0.000  0.500
     ------------------------ ATOM  126 ------------------------
     Tr[ns(126)] =   3.00000
     eigenvalues:
       0.500  0.500  0.500
     eigenvectors (columns):
       1.000  0.000  0.000
       0.000  1.000  0.000
       0.000  0.000  1.000
     occupation matrix ns (before diag.):
       0.500  0.000  0.000
       0.000  0.500  0.000
       0.000  0.000  0.500
     ------------------------ ATOM  127 ------------------------
     Tr[ns(127)] =   3.00000
     eigenvalues:
       0.500  0.500  0.500
     eigenvectors (columns):
       1.000  0.000  0.000
       0.000  1.000  0.000
       0.000  0.000  1.000
     occupation matrix ns (before diag.):
       0.500  0.000  0.000
       0.000  0.500  0.000
       0.000  0.000  0.500
     ------------------------ ATOM  128 ------------------------
     Tr[ns(128)] =   3.00000
     eigenvalues:
       0.500  0.500  0.500
     eigenvectors (columns):
       1.000  0.000  0.000
       0.000  1.000  0.000
       0.000  0.000  1.000
     occupation matrix ns (before diag.):
       0.500  0.000  0.000
       0.000  0.500  0.000
       0.000  0.000  0.500
     ------------------------ ATOM  129 ------------------------
     Tr[ns(129)] =   1.00000
     eigenvalues:
       0.167  0.167  0.167
     eigenvectors (columns):
       1.000  0.000  0.000
       0.000  1.000  0.000
       0.000  0.000  1.000
     occupation matrix ns (before diag.):
       0.167  0.000  0.000
       0.000  0.167  0.000
       0.000  0.000  0.167
     ------------------------ ATOM  130 ------------------------
     Tr[ns(130)] =   1.00000
     eigenvalues:
       0.167  0.167  0.167
     eigenvectors (columns):
       1.000  0.000  0.000
       0.000  1.000  0.000
       0.000  0.000  1.000
     occupation matrix ns (before diag.):
       0.167  0.000  0.000
       0.000  0.167  0.000
       0.000  0.000  0.167
     ------------------------ ATOM  131 ------------------------
     Tr[ns(131)] =   1.00000
     eigenvalues:
       0.167  0.167  0.167
     eigenvectors (columns):
       1.000  0.000  0.000
       0.000  1.000  0.000
       0.000  0.000  1.000
     occupation matrix ns (before diag.):
       0.167  0.000  0.000
       0.000  0.167  0.000
       0.000  0.000  0.167
     ------------------------ ATOM  132 ------------------------
     Tr[ns(132)] =   1.00000
     eigenvalues:
       0.167  0.167  0.167
     eigenvectors (columns):
       1.000  0.000  0.000
       0.000  1.000  0.000
       0.000  0.000  1.000
     occupation matrix ns (before diag.):
       0.167  0.000  0.000
       0.000  0.167  0.000
       0.000  0.000  0.167
     ------------------------ ATOM  133 ------------------------
     Tr[ns(133)] =   3.00000
     eigenvalues:
       0.500  0.500  0.500
     eigenvectors (columns):
       1.000  0.000  0.000
       0.000  1.000  0.000
       0.000  0.000  1.000
     occupation matrix ns (before diag.):
       0.500  0.000  0.000
       0.000  0.500  0.000
       0.000  0.000  0.500
     ------------------------ ATOM  134 ------------------------
     Tr[ns(134)] =   3.00000
     eigenvalues:
       0.500  0.500  0.500
     eigenvectors (columns):
       1.000  0.000  0.000
       0.000  1.000  0.000
       0.000  0.000  1.000
     occupation matrix ns (before diag.):
       0.500  0.000  0.000
       0.000  0.500  0.000
       0.000  0.000  0.500
     ------------------------ ATOM  135 ------------------------
     Tr[ns(135)] =   3.00000
     eigenvalues:
       0.500  0.500  0.500
     eigenvectors (columns):
       1.000  0.000  0.000
       0.000  1.000  0.000
       0.000  0.000  1.000
     occupation matrix ns (before diag.):
       0.500  0.000  0.000
       0.000  0.500  0.000
       0.000  0.000  0.500
     ------------------------ ATOM  136 ------------------------
     Tr[ns(136)] =   3.00000
     eigenvalues:
       0.500  0.500  0.500
     eigenvectors (columns):
       1.000  0.000  0.000
       0.000  1.000  0.000
       0.000  0.000  1.000
     occupation matrix ns (before diag.):
       0.500  0.000  0.000
       0.000  0.500  0.000
       0.000  0.000  0.500
     ------------------------ ATOM  137 ------------------------
     Tr[ns(137)] =   1.00000
     eigenvalues:
       0.167  0.167  0.167
     eigenvectors (columns):
       1.000  0.000  0.000
       0.000  1.000  0.000
       0.000  0.000  1.000
     occupation matrix ns (before diag.):
       0.167  0.000  0.000
       0.000  0.167  0.000
       0.000  0.000  0.167
     ------------------------ ATOM  138 ------------------------
     Tr[ns(138)] =   1.00000
     eigenvalues:
       0.167  0.167  0.167
     eigenvectors (columns):
       1.000  0.000  0.000
       0.000  1.000  0.000
       0.000  0.000  1.000
     occupation matrix ns (before diag.):
       0.167  0.000  0.000
       0.000  0.167  0.000
       0.000  0.000  0.167
     ------------------------ ATOM  139 ------------------------
     Tr[ns(139)] =   1.00000
     eigenvalues:
       0.167  0.167  0.167
     eigenvectors (columns):
       1.000  0.000  0.000
       0.000  1.000  0.000
       0.000  0.000  1.000
     occupation matrix ns (before diag.):
       0.167  0.000  0.000
       0.000  0.167  0.000
       0.000  0.000  0.167
     ------------------------ ATOM  140 ------------------------
     Tr[ns(140)] =   1.00000
     eigenvalues:
       0.167  0.167  0.167
     eigenvectors (columns):
       1.000  0.000  0.000
       0.000  1.000  0.000
       0.000  0.000  1.000
     occupation matrix ns (before diag.):
       0.167  0.000  0.000
       0.000  0.167  0.000
       0.000  0.000  0.167
     ------------------------ ATOM  141 ------------------------
     Tr[ns(141)] =   3.00000
     eigenvalues:
       0.500  0.500  0.500
     eigenvectors (columns):
       1.000  0.000  0.000
       0.000  1.000  0.000
       0.000  0.000  1.000
     occupation matrix ns (before diag.):
       0.500  0.000  0.000
       0.000  0.500  0.000
       0.000  0.000  0.500
     ------------------------ ATOM  142 ------------------------
     Tr[ns(142)] =   3.00000
     eigenvalues:
       0.500  0.500  0.500
     eigenvectors (columns):
       1.000  0.000  0.000
       0.000  1.000  0.000
       0.000  0.000  1.000
     occupation matrix ns (before diag.):
       0.500  0.000  0.000
       0.000  0.500  0.000
       0.000  0.000  0.500
     ------------------------ ATOM  143 ------------------------
     Tr[ns(143)] =   3.00000
     eigenvalues:
       0.500  0.500  0.500
     eigenvectors (columns):
       1.000  0.000  0.000
       0.000  1.000  0.000
       0.000  0.000  1.000
     occupation matrix ns (before diag.):
       0.500  0.000  0.000
       0.000  0.500  0.000
       0.000  0.000  0.500
     ------------------------ ATOM  144 ------------------------
     Tr[ns(144)] =   3.00000
     eigenvalues:
       0.500  0.500  0.500
     eigenvectors (columns):
       1.000  0.000  0.000
       0.000  1.000  0.000
       0.000  0.000  1.000
     occupation matrix ns (before diag.):
       0.500  0.000  0.000
       0.000  0.500  0.000
       0.000  0.000  0.500
     ------------------------ ATOM  145 ------------------------
     Tr[ns(145)] =   1.00000
     eigenvalues:
       0.167  0.167  0.167
     eigenvectors (columns):
       1.000  0.000  0.000
       0.000  1.000  0.000
       0.000  0.000  1.000
     occupation matrix ns (before diag.):
       0.167  0.000  0.000
       0.000  0.167  0.000
       0.000  0.000  0.167
     ------------------------ ATOM  146 ------------------------
     Tr[ns(146)] =   1.00000
     eigenvalues:
       0.167  0.167  0.167
     eigenvectors (columns):
       1.000  0.000  0.000
       0.000  1.000  0.000
       0.000  0.000  1.000
     occupation matrix ns (before diag.):
       0.167  0.000  0.000
       0.000  0.167  0.000
       0.000  0.000  0.167
     ------------------------ ATOM  147 ------------------------
     Tr[ns(147)] =   1.00000
     eigenvalues:
       0.167  0.167  0.167
     eigenvectors (columns):
       1.000  0.000  0.000
       0.000  1.000  0.000
       0.000  0.000  1.000
     occupation matrix ns (before diag.):
       0.167  0.000  0.000
       0.000  0.167  0.000
       0.000  0.000  0.167
     ------------------------ ATOM  148 ------------------------
     Tr[ns(148)] =   1.00000
     eigenvalues:
       0.167  0.167  0.167
     eigenvectors (columns):
       1.000  0.000  0.000
       0.000  1.000  0.000
       0.000  0.000  1.000
     occupation matrix ns (before diag.):
       0.167  0.000  0.000
       0.000  0.167  0.000
       0.000  0.000  0.167
     ------------------------ ATOM  149 ------------------------
     Tr[ns(149)] =   3.00000
     eigenvalues:
       0.500  0.500  0.500
     eigenvectors (columns):
       1.000  0.000  0.000
       0.000  1.000  0.000
       0.000  0.000  1.000
     occupation matrix ns (before diag.):
       0.500  0.000  0.000
       0.000  0.500  0.000
       0.000  0.000  0.500
     ------------------------ ATOM  150 ------------------------
     Tr[ns(150)] =   3.00000
     eigenvalues:
       0.500  0.500  0.500
     eigenvectors (columns):
       1.000  0.000  0.000
       0.000  1.000  0.000
       0.000  0.000  1.000
     occupation matrix ns (before diag.):
       0.500  0.000  0.000
       0.000  0.500  0.000
       0.000  0.000  0.500
     ------------------------ ATOM  151 ------------------------
     Tr[ns(151)] =   3.00000
     eigenvalues:
       0.500  0.500  0.500
     eigenvectors (columns):
       1.000  0.000  0.000
       0.000  1.000  0.000
       0.000  0.000  1.000
     occupation matrix ns (before diag.):
       0.500  0.000  0.000
       0.000  0.500  0.000
       0.000  0.000  0.500
     ------------------------ ATOM  152 ------------------------
[...]
     ------------------------ ATOM  169 ------------------------
     Tr[ns(169)] =   4.30903
     eigenvalues:
       0.710  0.718  0.726
     eigenvectors (columns):
       0.698  0.691 -0.188
       0.387 -0.143  0.911
       0.603 -0.708 -0.367
     occupation matrix ns (before diag.):
       0.714 -0.003 -0.002
      -0.003  0.724 -0.005
      -0.002 -0.005  0.716
     ------------------------ ATOM  170 ------------------------
     Tr[ns(170)] =   4.28293
     eigenvalues:
       0.701  0.717  0.724
     eigenvectors (columns):
      -0.751  0.659 -0.050
      -0.557 -0.591  0.584
      -0.355 -0.466 -0.810
     occupation matrix ns (before diag.):
       0.708 -0.007 -0.004
      -0.007  0.714 -0.006
      -0.004 -0.006  0.719
     ------------------------ ATOM  171 ------------------------
     Tr[ns(171)] =   4.10331
     eigenvalues:
       0.677  0.678  0.696
     eigenvectors (columns):
       0.061  0.861  0.504
       0.696  0.325 -0.640
       0.716 -0.390  0.579
     occupation matrix ns (before diag.):
       0.683 -0.006  0.005
      -0.006  0.685 -0.007
       0.005 -0.007  0.684
     ------------------------ ATOM  172 ------------------------
     Tr[ns(172)] =   4.20196
     eigenvalues:
       0.684  0.703  0.714
     eigenvectors (columns):
      -0.158 -0.986 -0.052
      -0.679  0.147 -0.719
       0.717 -0.078 -0.693
     occupation matrix ns (before diag.):
       0.702 -0.002  0.003
      -0.002  0.700  0.015
       0.003  0.015  0.699
     ------------------------ ATOM  173 ------------------------
     Tr[ns(173)] =   5.25560
     eigenvalues:
       0.871  0.877  0.879
     eigenvectors (columns):
      -0.719  0.492  0.491
       0.122 -0.606  0.786
       0.685  0.624  0.376
     occupation matrix ns (before diag.):
       0.875  0.001  0.003
       0.001  0.878  0.000
       0.003  0.000  0.875
     ------------------------ ATOM  174 ------------------------
     Tr[ns(174)] =   5.25548
     eigenvalues:
       0.871  0.877  0.880
     eigenvectors (columns):
       0.962 -0.192  0.195
      -0.228 -0.956  0.183
      -0.152  0.221  0.964
     occupation matrix ns (before diag.):
       0.871  0.001  0.002
       0.001  0.877  0.000
       0.002  0.000  0.880
     ------------------------ ATOM  175 ------------------------
     Tr[ns(175)] =   5.38828
     eigenvalues:
       0.897  0.898  0.899
     eigenvectors (columns):
      -0.701  0.703 -0.122
      -0.391 -0.236  0.889
       0.596  0.671  0.440
     occupation matrix ns (before diag.):
       0.897 -0.000  0.000
      -0.000  0.899  0.001
       0.000  0.001  0.898
     ------------------------ ATOM  176 ------------------------
     Tr[ns(176)] =   5.25797
     eigenvalues:
       0.875  0.877  0.878
     eigenvectors (columns):
       0.824 -0.267 -0.499
       0.486 -0.118  0.866
       0.290  0.956 -0.032
     occupation matrix ns (before diag.):
       0.876 -0.001 -0.000
      -0.001  0.877 -0.000
      -0.000 -0.000  0.877
     ------------------------ ATOM  177 ------------------------
     Tr[ns(177)] =   4.00959
     eigenvalues:
       0.665  0.667  0.673
     eigenvectors (columns):
       0.886 -0.405 -0.225
      -0.021  0.449 -0.893
       0.463  0.796  0.390
     occupation matrix ns (before diag.):
       0.665  0.001 -0.001
       0.001  0.672 -0.002
      -0.001 -0.002  0.667
     ------------------------ ATOM  178 ------------------------
     Tr[ns(178)] =   3.99056
     eigenvalues:
       0.658  0.664  0.673
     eigenvectors (columns):
       0.844  0.362 -0.396
       0.412 -0.910  0.045
       0.344  0.201  0.917
     occupation matrix ns (before diag.):
       0.661 -0.002 -0.005
      -0.002  0.663 -0.001
      -0.005 -0.001  0.671
     ------------------------ ATOM  179 ------------------------
     Tr[ns(179)] =   4.09531
     eigenvalues:
       0.674  0.678  0.696
     eigenvectors (columns):
      -0.537  0.734 -0.417
       0.395  0.655  0.644
      -0.746 -0.181  0.641
     occupation matrix ns (before diag.):
       0.680 -0.004 -0.006
      -0.004  0.685  0.009
      -0.006  0.009  0.683
     ------------------------ ATOM  180 ------------------------
     Tr[ns(180)] =   4.17117
     eigenvalues:
       0.678  0.701  0.707
     eigenvectors (columns):
       0.859  0.104 -0.502
       0.512 -0.151  0.845
       0.012 -0.983 -0.183
     occupation matrix ns (before diag.):
       0.685 -0.013  0.000
      -0.013  0.699 -0.001
       0.000 -0.001  0.701
     ------------------------ ATOM  181 ------------------------
     Tr[ns(181)] =   5.37175
     eigenvalues:
       0.894  0.895  0.897
     eigenvectors (columns):
       0.668  0.680 -0.303
       0.567 -0.729 -0.385
       0.482 -0.085  0.872
     occupation matrix ns (before diag.):
       0.895 -0.000 -0.001
      -0.000  0.895 -0.001
      -0.001 -0.001  0.896
     ------------------------ ATOM  182 ------------------------
     Tr[ns(182)] =   5.37707
     eigenvalues:
       0.895  0.896  0.897
     eigenvectors (columns):
      -0.870  0.082  0.486
      -0.407  0.438 -0.802
       0.279  0.895  0.348
     occupation matrix ns (before diag.):
       0.896 -0.001  0.000
      -0.001  0.896  0.000
       0.000  0.000  0.896
     ------------------------ ATOM  183 ------------------------
     Tr[ns(183)] =   5.24559
     eigenvalues:
       0.871  0.874  0.878
     eigenvectors (columns):
      -0.659  0.693  0.291
       0.089  0.457 -0.885
      -0.746 -0.558 -0.363
     occupation matrix ns (before diag.):
       0.873 -0.001 -0.002
      -0.001  0.877  0.002
      -0.002  0.002  0.873
     ------------------------ ATOM  184 ------------------------
     Tr[ns(184)] =   5.25746
     eigenvalues:
       0.874  0.877  0.878
     eigenvectors (columns):
       0.997 -0.041  0.059
      -0.071 -0.402  0.913
      -0.014 -0.915 -0.404
     occupation matrix ns (before diag.):
       0.874  0.000  0.000
       0.000  0.878 -0.000
       0.000 -0.000  0.877
     ------------------------ ATOM  185 ------------------------
     Tr[ns(185)] =   4.03616
     eigenvalues:
       0.662  0.668  0.688
     eigenvectors (columns):
      -0.182 -0.830  0.528
       0.893  0.084  0.441
      -0.410  0.552  0.726
     occupation matrix ns (before diag.):
       0.674  0.006  0.007
       0.006  0.667  0.009
       0.007  0.009  0.678
     ------------------------ ATOM  186 ------------------------
     Tr[ns(186)] =   4.18409
     eigenvalues:
       0.678  0.701  0.713
     eigenvectors (columns):
      -0.567 -0.111 -0.816
      -0.016  0.992 -0.124
       0.824 -0.058 -0.564
     occupation matrix ns (before diag.):
       0.702  0.001  0.016
       0.001  0.701  0.001
       0.016  0.001  0.689
     ------------------------ ATOM  187 ------------------------
     Tr[ns(187)] =   4.17250
     eigenvalues:
       0.680  0.700  0.706
     eigenvectors (columns):
      -0.603  0.104 -0.791
       0.793 -0.025 -0.608
       0.083  0.994  0.068
     occupation matrix ns (before diag.):
       0.697  0.012  0.001
       0.012  0.690 -0.002
       0.001 -0.002  0.700
     ------------------------ ATOM  188 ------------------------
     Tr[ns(188)] =   4.08570
     eigenvalues:
       0.670  0.678  0.695
     eigenvectors (columns):
       0.327 -0.754 -0.570
       0.458  0.654 -0.602
       0.827 -0.064  0.559
     occupation matrix ns (before diag.):
       0.683  0.004 -0.008
       0.004  0.682 -0.009
      -0.008 -0.009  0.678
     ------------------------ ATOM  189 ------------------------
     Tr[ns(189)] =   5.37770
     eigenvalues:
       0.896  0.896  0.897
     eigenvectors (columns):
       0.192  0.371 -0.908
       0.734 -0.669 -0.118
      -0.651 -0.644 -0.401
     occupation matrix ns (before diag.):
       0.897  0.000  0.000
       0.000  0.896  0.000
       0.000  0.000  0.896
     ------------------------ ATOM  190 ------------------------
     Tr[ns(190)] =   5.39221
     eigenvalues:
       0.898  0.899  0.899
     eigenvectors (columns):
      -0.198  0.934  0.296
      -0.977 -0.213  0.018
       0.080 -0.286  0.955
     occupation matrix ns (before diag.):
       0.899 -0.000  0.000
      -0.000  0.898  0.000
       0.000  0.000  0.899
     ------------------------ ATOM  191 ------------------------
     Tr[ns(191)] =   5.37754
     eigenvalues:
       0.895  0.897  0.897
     eigenvectors (columns):
      -0.466 -0.569  0.677
       0.254 -0.819 -0.514
       0.847 -0.067  0.527
     occupation matrix ns (before diag.):
       0.896  0.000  0.001
       0.000  0.897 -0.000
       0.001 -0.000  0.896
     ------------------------ ATOM  192 ------------------------
     Tr[ns(192)] =   5.37746
     eigenvalues:
       0.895  0.897  0.897
     eigenvectors (columns):
      -0.438  0.583 -0.684
      -0.271  0.641  0.719
       0.857  0.500 -0.123
     occupation matrix ns (before diag.):
       0.897 -0.001  0.001
      -0.001  0.897  0.000
       0.001  0.000  0.895
     ------------------------ ATOM  193 ------------------------
     Tr[ns(193)] =   4.14640
     eigenvalues:
       0.680  0.692  0.701
     eigenvectors (columns):
      -0.876  0.244  0.416
       0.274  0.962  0.012
       0.397 -0.125  0.909
     occupation matrix ns (before diag.):
       0.685  0.003  0.007
       0.003  0.691 -0.001
       0.007 -0.001  0.697
     ------------------------ ATOM  194 ------------------------
     Tr[ns(194)] =   4.00045
     eigenvalues:
       0.663  0.667  0.671
     eigenvectors (columns):
      -0.748  0.097  0.657
       0.019  0.992 -0.124
       0.664  0.080  0.744
     occupation matrix ns (before diag.):
       0.666 -0.000  0.004
      -0.000  0.667 -0.000
       0.004 -0.000  0.667
     ------------------------ ATOM  195 ------------------------
     Tr[ns(195)] =   4.17465
     eigenvalues:
       0.679  0.698  0.710
     eigenvectors (columns):
       0.798 -0.112  0.592
      -0.602 -0.164  0.781
       0.010 -0.980 -0.198
     occupation matrix ns (before diag.):
       0.690  0.014 -0.002
       0.014  0.698 -0.002
      -0.002 -0.002  0.699
     ------------------------ ATOM  196 ------------------------
     Tr[ns(196)] =   4.08198
     eigenvalues:
       0.671  0.675  0.695
     eigenvectors (columns):
       0.062  0.843 -0.534
       0.537 -0.479 -0.695
       0.842  0.243  0.482
     occupation matrix ns (before diag.):
       0.681  0.007 -0.005
       0.007  0.683 -0.008
      -0.005 -0.008  0.677
     ------------------------ ATOM  197 ------------------------
     Tr[ns(197)] =   5.37718
     eigenvalues:
       0.895  0.896  0.897
     eigenvectors (columns):
       0.702  0.541 -0.464
      -0.692  0.363 -0.624
      -0.169  0.759  0.629
     occupation matrix ns (before diag.):
       0.896  0.001 -0.000
       0.001  0.896 -0.001
      -0.000 -0.001  0.897
     ------------------------ ATOM  198 ------------------------
     Tr[ns(198)] =   5.37413
     eigenvalues:
       0.895  0.895  0.897
     eigenvectors (columns):
       0.808  0.557  0.190
       0.431 -0.780  0.454
      -0.401  0.286  0.870
     occupation matrix ns (before diag.):
       0.895 -0.000  0.001
      -0.000  0.896  0.001
       0.001  0.001  0.897
     ------------------------ ATOM  199 ------------------------
     Tr[ns(199)] =   5.38518
     eigenvalues:
       0.896  0.897  0.899
     eigenvectors (columns):
      -0.418 -0.878 -0.233
       0.191  0.165 -0.968
       0.888 -0.449  0.099
     occupation matrix ns (before diag.):
       0.897  0.001  0.000
       0.001  0.899 -0.000
       0.000 -0.000  0.896
     ------------------------ ATOM  200 ------------------------
     Tr[ns(200)] =   5.38002
     eigenvalues:
       0.895  0.896  0.898
     eigenvectors (columns):
      -0.519 -0.714 -0.471
       0.227  0.416 -0.881
       0.824 -0.563 -0.054
     occupation matrix ns (before diag.):
       0.896  0.001  0.000
       0.001  0.898 -0.000
       0.000 -0.000  0.896
     ------------------------ ATOM  201 ------------------------
     Tr[ns(201)] =   4.08714
     eigenvalues:
       0.670  0.679  0.694
     eigenvectors (columns):
       0.584  0.360 -0.728
      -0.812  0.231 -0.536
      -0.025  0.904  0.427
     occupation matrix ns (before diag.):
       0.684  0.010 -0.004
       0.010  0.678 -0.004
      -0.004 -0.004  0.682
     ------------------------ ATOM  202 ------------------------
     Tr[ns(202)] =   4.12598
     eigenvalues:
       0.677  0.684  0.702
     eigenvectors (columns):
       0.702 -0.540  0.464
       0.688  0.344 -0.640
       0.186  0.768  0.613
     occupation matrix ns (before diag.):
       0.684 -0.009  0.004
      -0.009  0.688 -0.008
       0.004 -0.008  0.691
     ------------------------ ATOM  203 ------------------------
     Tr[ns(203)] =   4.07341
     eigenvalues:
       0.668  0.672  0.696
     eigenvectors (columns):
       0.652  0.558 -0.514
       0.043 -0.703 -0.710
       0.757 -0.440  0.482
     occupation matrix ns (before diag.):
       0.677  0.009 -0.008
       0.009  0.685 -0.008
      -0.008 -0.008  0.675
     ------------------------ ATOM  204 ------------------------
     Tr[ns(204)] =   4.07921
     eigenvalues:
       0.667  0.679  0.694
     eigenvectors (columns):
       0.096  0.789 -0.607
      -0.478  0.572  0.667
       0.873  0.226  0.432
     occupation matrix ns (before diag.):
       0.684 -0.006 -0.005
      -0.006  0.683  0.009
      -0.005  0.009  0.673
     ------------------------ ATOM  205 ------------------------
     Tr[ns(205)] =   5.38341
     eigenvalues:
       0.896  0.897  0.898
     eigenvectors (columns):
      -0.178 -0.247 -0.953
       0.072  0.962 -0.263
       0.981 -0.115 -0.153
     occupation matrix ns (before diag.):
       0.898  0.000  0.000
       0.000  0.897 -0.000
       0.000 -0.000  0.896
     ------------------------ ATOM  206 ------------------------
     Tr[ns(206)] =   5.39139
     eigenvalues:
       0.898  0.898  0.900
     eigenvectors (columns):
       0.994 -0.106  0.020
       0.087  0.680 -0.728
       0.064  0.725  0.685
     occupation matrix ns (before diag.):
       0.898 -0.000  0.000
      -0.000  0.899 -0.001
       0.000 -0.001  0.899
     ------------------------ ATOM  207 ------------------------
     Tr[ns(207)] =   5.37694
     eigenvalues:
       0.896  0.896  0.897
     eigenvectors (columns):
       0.964 -0.187 -0.190
      -0.160  0.166 -0.973
       0.214  0.968  0.130
     occupation matrix ns (before diag.):
       0.896  0.000 -0.000
       0.000  0.897 -0.000
      -0.000 -0.000  0.896
     ------------------------ ATOM  208 ------------------------
     Tr[ns(208)] =   5.25048
     eigenvalues:
       0.872  0.876  0.877
     eigenvectors (columns):
      -0.313 -0.923 -0.224
       0.454  0.062 -0.889
       0.834 -0.379  0.400
     occupation matrix ns (before diag.):
       0.876  0.001  0.001
       0.001  0.876 -0.002
       0.001 -0.002  0.874
     ------------------------ ATOM  209 ------------------------
     Tr[ns(209)] =   4.21231
     eigenvalues:
       0.685  0.700  0.721
     eigenvectors (columns):
       0.428  0.902  0.065
       0.649 -0.356  0.673
      -0.630  0.245  0.737
     occupation matrix ns (before diag.):
       0.697 -0.003  0.005
      -0.003  0.703  0.017
       0.005  0.017  0.706
     ------------------------ ATOM  210 ------------------------
     Tr[ns(210)] =   4.16401
     eigenvalues:
       0.680  0.691  0.711
     eigenvectors (columns):
      -0.671  0.153 -0.725
       0.706 -0.167 -0.688
       0.226  0.974 -0.005
     occupation matrix ns (before diag.):
       0.696  0.015  0.002
       0.015  0.695 -0.002
       0.002 -0.002  0.691
     ------------------------ ATOM  211 ------------------------
     Tr[ns(211)] =   4.19873
     eigenvalues:
       0.684  0.703  0.713
     eigenvectors (columns):
       0.716 -0.051 -0.697
       0.696  0.128  0.706
       0.054 -0.990  0.127
     occupation matrix ns (before diag.):
       0.698 -0.014 -0.002
      -0.014  0.699  0.000
      -0.002  0.000  0.703
     ------------------------ ATOM  212 ------------------------
     Tr[ns(212)] =   4.11859
     eigenvalues:
       0.678  0.682  0.700
     eigenvectors (columns):
      -0.586 -0.732  0.348
       0.686 -0.219  0.694
      -0.432  0.645  0.630
     occupation matrix ns (before diag.):
       0.682  0.006  0.003
       0.006  0.689  0.009
       0.003  0.009  0.688
     ------------------------ ATOM  213 ------------------------
     Tr[ns(213)] =   5.25924
     eigenvalues:
       0.875  0.876  0.878
     eigenvectors (columns):
       0.936 -0.304  0.179
       0.343  0.903 -0.259
      -0.083  0.303  0.949
     occupation matrix ns (before diag.):
       0.875 -0.001  0.000
      -0.001  0.876 -0.000
       0.000 -0.000  0.878
     ------------------------ ATOM  214 ------------------------
     Tr[ns(214)] =   5.37595
     eigenvalues:
       0.894  0.896  0.898
     eigenvectors (columns):
      -0.089 -0.573 -0.815
       0.124  0.805 -0.579
       0.988 -0.153 -0.001
     occupation matrix ns (before diag.):
       0.897  0.001  0.000
       0.001  0.897 -0.000
       0.000 -0.000  0.894
     ------------------------ ATOM  215 ------------------------
     Tr[ns(215)] =   5.25784
     eigenvalues:
       0.874  0.876  0.878
     eigenvectors (columns):
       0.932 -0.111 -0.344
      -0.181  0.681 -0.709
       0.313  0.723  0.615
     occupation matrix ns (before diag.):
       0.875  0.001 -0.001
       0.001  0.877 -0.001
      -0.001 -0.001  0.877
     ------------------------ ATOM  216 ------------------------
     Tr[ns(216)] =   5.38929
     eigenvalues:
       0.897  0.898  0.899
     eigenvectors (columns):
       0.048 -0.619 -0.784
      -0.079  0.780 -0.621
       0.996  0.091 -0.012
     occupation matrix ns (before diag.):
       0.899  0.000 -0.000
       0.000  0.899  0.000
      -0.000  0.000  0.897

     Number of occupied Hubbard levels = 1020.1851

     Threshold (ethr) on eigenvalues was too large:
     Diagonalizing with lowered threshold

     Davidson diagonalization with overlap
     ethr =  1.89E-04,  avg # of iterations = 11.9

     total cpu time spent up to now is     2003.4 secs

     total energy              =  -36447.42109355 Ry
     estimated scf accuracy    <       5.62519698 Ry

     iteration #  2     ecut=   120.00 Ry     beta= 0.65
     Davidson diagonalization with overlap
     ethr =  1.86E-04,  avg # of iterations =  2.2

     total cpu time spent up to now is     2780.0 secs

     total energy              =  -36448.00179969 Ry
     estimated scf accuracy    <       0.90246269 Ry

     iteration #  3     ecut=   120.00 Ry     beta= 0.65
     Davidson diagonalization with overlap
     ethr =  2.98E-05,  avg # of iterations = 13.6

     total cpu time spent up to now is     3800.5 secs

     total energy              =  -36447.78010438 Ry
     estimated scf accuracy    <       2.07808347 Ry

     iteration #  4     ecut=   120.00 Ry     beta= 0.65
     Davidson diagonalization with overlap
     ethr =  2.98E-05,  avg # of iterations = 18.0

     total cpu time spent up to now is     4770.2 secs

     total energy              =  -36448.13238936 Ry
     estimated scf accuracy    <       0.84051014 Ry

     iteration #  5     ecut=   120.00 Ry     beta= 0.65
     Davidson diagonalization with overlap
     ethr =  2.78E-05,  avg # of iterations = 18.4

     total cpu time spent up to now is     5577.6 secs

     total energy              =  -36448.23697488 Ry
     estimated scf accuracy    <       0.18112913 Ry

     iteration #  6     ecut=   120.00 Ry     beta= 0.65
     Davidson diagonalization with overlap
     c_bands:  3 eigenvalues not converged
     ethr =  5.99E-06,  avg # of iterations = 19.5

     total cpu time spent up to now is     6396.8 secs

     total energy              =  -36448.26446328 Ry
     estimated scf accuracy    <       0.03985938 Ry

     iteration #  7     ecut=   120.00 Ry     beta= 0.65
     Davidson diagonalization with overlap
