
     Program PWSCF v.7.3.1 starts on  7Apr2026 at 12:52:48 

     This program is part of the open-source Quantum ESPRESSO suite
     for quantum simulation of materials; please cite
         "P. Giannozzi et al., J. Phys.:Condens. Matter 21 395502 (2009);
         "P. Giannozzi et al., J. Phys.:Condens. Matter 29 465901 (2017);
         "P. Giannozzi et al., J. Chem. Phys. 152 154105 (2020);
          URL http://www.quantum-espresso.org", 
     in publications or presentations arising from this work. More details at
     http://www.quantum-espresso.org/quote

     Parallel version (MPI), running on   640 processors

     MPI processes distributed on     5 nodes
     481928 MiB available memory on the printing compute node when the environment starts

     Reading input from In1.0Ga0.0As0.75Sb0.25_cube_3x3x3.4.scf.in
Warning: card &CELL ignored
Warning: card   CELL_DOFREE = 'ALL', ignored
Warning: card / ignored

     Current dimensions of program PWSCF are:
     Max number of different atomic species (ntypx) = 10
     Max number of k-points (npk) =  40000
     Max angular momentum in pseudopotentials (lmaxx) =  4

     K-points division:     npool     =       8
     R & G space division:  proc/nbgrp/npool/nimage =      80
     Subspace diagonalization in iterative solution of the eigenvalue problem:
     one sub-group per band group will be used
     custom distributed-memory algorithm (size of sub-group:  8*  8 procs)


     Parallelization info
     --------------------
     sticks:   dense  smooth     PW     G-vecs:    dense   smooth      PW
     Min         589     589    151                96239    96239   12547
     Max         590     590    152                96246    96246   12552
     Sum       47161   47161  12109              7699269  7699269 1003865

     Using Slab Decomposition



     bravais-lattice index     =            1
     lattice parameter (alat)  =      35.1307  a.u.
     unit-cell volume          =   43357.0128 (a.u.)^3
     number of atoms/cell      =          216
     number of atomic types    =            4
     number of electrons       =      3024.00
     number of Kohn-Sham states=         2160
     kinetic-energy cutoff     =     120.0000  Ry
     charge density cutoff     =     480.0000  Ry
     scf convergence threshold =      1.0E-05
     mixing beta               =       0.6500
     number of iterations used =            8  plain     mixing
     Exchange-correlation= PBE
                           (   1   4   3   4   0   0   0)
     Hubbard projectors: atomic
     Hubbard parameters of DFT+U (Dudarev formulation) in eV:
     U(As-4p) =  3.2600
     U(Ga-4p) = -3.2650
     U(In-5p) = -0.9725
     U(Sb-5p) =  3.1600

     Internal variables: lda_plus_u =T, lda_plus_u_kind = 0

     celldm(1)=  35.130671  celldm(2)=   0.000000  celldm(3)=   0.000000
     celldm(4)=   0.000000  celldm(5)=   0.000000  celldm(6)=   0.000000

     crystal axes: (cart. coord. in units of alat)
               a(1) = (   1.000000   0.000000   0.000000 )  
               a(2) = (   0.000000   1.000000   0.000000 )  
               a(3) = (   0.000000   0.000000   1.000000 )  

     reciprocal axes: (cart. coord. in units 2 pi/alat)
               b(1) = (  1.000000  0.000000  0.000000 )  
               b(2) = (  0.000000  1.000000  0.000000 )  
               b(3) = (  0.000000  0.000000  1.000000 )  


     PseudoPot. # 1 for As read from file:
     /work/i254/i254/gentles/data/pseudos/As.pbe.NC-SR.standard.v0.5.UPF
     MD5 check sum: bfe1a874457ce592347346129958e7cf
     Pseudo is Norm-conserving + core correction, Zval = 15.0
     Generated using ONCVPSP code by D. R. Hamann
     Using radial grid of 1358 points,  6 beta functions with: 
                l(1) =   0
                l(2) =   0
                l(3) =   1
                l(4) =   1
                l(5) =   2
                l(6) =   2

     PseudoPot. # 2 for Ga read from file:
     /work/i254/i254/gentles/data/pseudos/Ga.pbe.NC-SR.standard.v0.5.UPF
     MD5 check sum: 2bb81bf6f0a8d9832cf3329850435ecf
     Pseudo is Norm-conserving + core correction, Zval = 13.0
     Generated using ONCVPSP code by D. R. Hamann
     Using radial grid of 1902 points,  6 beta functions with: 
                l(1) =   0
                l(2) =   0
                l(3) =   1
                l(4) =   1
                l(5) =   2
                l(6) =   2

     PseudoPot. # 3 for In read from file:
     /work/i254/i254/gentles/data/pseudos/In.pbe.NC-SR.standard.v0.5.UPF
     MD5 check sum: 835f4bf908c982ff75c88e16816a8d7f
     Pseudo is Norm-conserving + core correction, Zval = 13.0
     Generated using ONCVPSP code by D. R. Hamann
     Using radial grid of 1964 points,  6 beta functions with: 
                l(1) =   0
                l(2) =   0
                l(3) =   1
                l(4) =   1
                l(5) =   2
                l(6) =   2

     PseudoPot. # 4 for Sb read from file:
     /work/i254/i254/gentles/data/pseudos/Sb.pbe.NC-SR.standard.v0.5.UPF
     MD5 check sum: 127f69b6101c45666faeae1b5d611565
     Pseudo is Norm-conserving + core correction, Zval = 15.0
     Generated using ONCVPSP code by D. R. Hamann
     Using radial grid of 1434 points,  6 beta functions with: 
                l(1) =   0
                l(2) =   0
                l(3) =   1
                l(4) =   1
                l(5) =   2
                l(6) =   2

     atomic species   valence    mass     pseudopotential
     As               15.00    74.92160     As( 1.00)
     Ga               13.00    69.72300     Ga( 1.00)
     In               13.00   114.81800     In( 1.00)
     Sb               15.00   121.76000     Sb( 1.00)

     No symmetry found



   Cartesian axes

     site n.     atom                  positions (alat units)
         1        In     tau(   1) = (   0.0023190  -0.0030710   0.0001660  )
         2        In     tau(   2) = (  -0.0012020   0.1612150   0.1623840  )
         3        In     tau(   3) = (   0.1678800  -0.0010050   0.1664670  )
         4        In     tau(   4) = (   0.1711770   0.1620770   0.0054730  )
         5        As     tau(   5) = (   0.0845800   0.0793790   0.0832500  )
         6        Sb     tau(   6) = (   0.0829460   0.2505920   0.2484790  )
         7        As     tau(   7) = (   0.2520480   0.0820290   0.2477920  )
         8        As     tau(   8) = (   0.2526380   0.2484050   0.0844860  )
         9        In     tau(   9) = (   0.0003310  -0.0007380   0.3237570  )
        10        In     tau(  10) = (  -0.0095600   0.1654820   0.5000960  )
        11        In     tau(  11) = (   0.1677290  -0.0048280   0.5056190  )
        12        In     tau(  12) = (   0.1746670   0.1666560   0.3307100  )
        13        Sb     tau(  13) = (   0.0840510   0.0825360   0.4163820  )
        14        Sb     tau(  14) = (   0.0855870   0.2492100   0.5808740  )
        15        As     tau(  15) = (   0.2532840   0.0796540   0.5833950  )
        16        As     tau(  16) = (   0.2539610   0.2503720   0.4120820  )
        17        In     tau(  17) = (  -0.0026320  -0.0023630   0.6608010  )
        18        In     tau(  18) = (  -0.0039950   0.1609310   0.8397820  )
        19        In     tau(  19) = (   0.1710750  -0.0037800   0.8387870  )
        20        In     tau(  20) = (   0.1761520   0.1656620   0.6663120  )
        21        Sb     tau(  21) = (   0.0851040   0.0806670   0.7499430  )
        22        Sb     tau(  22) = (   0.0846910   0.2506370   0.9204430  )
        23        As     tau(  23) = (   0.2520490   0.0817860   0.9194140  )
        24        As     tau(  24) = (   0.2520210   0.2487940   0.7534190  )
        25        In     tau(  25) = (  -0.0029870   0.3374620   0.0055140  )
        26        In     tau(  26) = (   0.0046380   0.4960610   0.1729260  )
        27        In     tau(  27) = (   0.1706170   0.3359530   0.1620200  )
        28        In     tau(  28) = (   0.1669650   0.5004370  -0.0015690  )
        29        As     tau(  29) = (   0.0850620   0.4189220   0.0835960  )
        30        As     tau(  30) = (   0.0859790   0.5838190   0.2499330  )
        31        As     tau(  31) = (   0.2502900   0.4163610   0.2493150  )
        32        As     tau(  32) = (   0.2484160   0.5832120   0.0821030  )
        33        In     tau(  33) = (  -0.0025510   0.3351840   0.3388630  )
        34        In     tau(  34) = (   0.0105110   0.5019600   0.5010930  )
        35        In     tau(  35) = (   0.1686760   0.3330160   0.4892340  )
        36        In     tau(  36) = (   0.1676230   0.5000460   0.3314860  )
        37        As     tau(  37) = (   0.0852120   0.4182950   0.4136920  )
        38        As     tau(  38) = (   0.0848170   0.5884520   0.5854630  )
        39        Sb     tau(  39) = (   0.2493210   0.4191640   0.5822350  )
        40        As     tau(  40) = (   0.2468430   0.5824940   0.4167970  )
        41        In     tau(  41) = (   0.0064280   0.3375710   0.6717590  )
        42        In     tau(  42) = (   0.0020690   0.5013880   0.8348730  )
        43        In     tau(  43) = (   0.1709050   0.3364510   0.8318490  )
        44        In     tau(  44) = (   0.1636070   0.5063410   0.6700970  )
        45        As     tau(  45) = (   0.0865220   0.4207170   0.7534110  )
        46        As     tau(  46) = (   0.0875030   0.5839810   0.9146340  )
        47        As     tau(  47) = (   0.2515020   0.4169060   0.9174980  )
        48        As     tau(  48) = (   0.2492680   0.5854960   0.7506530  )
        49        In     tau(  49) = (   0.0113060   0.6680240   0.0000980  )
        50        In     tau(  50) = (   0.0008770   0.8345330   0.1648100  )
        51        In     tau(  51) = (   0.1666780   0.6657050   0.1659710  )
        52        In     tau(  52) = (   0.1663280   0.8338780   0.0009220  )
        53        As     tau(  53) = (   0.0867340   0.7517180   0.0853220  )
        54        As     tau(  54) = (   0.0852080   0.9155950   0.2469530  )
        55        As     tau(  55) = (   0.2450380   0.7510550   0.2488680  )
        56        As     tau(  56) = (   0.2485050   0.9178700   0.0813290  )
        57        In     tau(  57) = (   0.0042890   0.6715120   0.3277980  )
        58        In     tau(  58) = (   0.0052730   0.8282120   0.5012860  )
        59        In     tau(  59) = (   0.1670190   0.6677030   0.4994640  )
        60        In     tau(  60) = (   0.1666060   0.8355390   0.3336190  )
        61        As     tau(  61) = (   0.0864390   0.7498470   0.4146810  )
        62        As     tau(  62) = (   0.0839390   0.9123440   0.5852690  )
        63        As     tau(  63) = (   0.2480900   0.7509020   0.5826990  )
        64        As     tau(  64) = (   0.2489260   0.9173170   0.4183540  )
        65        In     tau(  65) = (  -0.0004410   0.6683400   0.6675800  )
        66        In     tau(  66) = (   0.0050090   0.8383430   0.8284460  )
        67        In     tau(  67) = (   0.1682120   0.6689940   0.8332270  )
        68        In     tau(  68) = (   0.1673790   0.8318870   0.6690130  )
        69        As     tau(  69) = (   0.0843780   0.7498870   0.7499330  )
        70        As     tau(  70) = (   0.0851290   0.9154610   0.9175870  )
        71        As     tau(  71) = (   0.2482140   0.7513900   0.9185590  )
        72        As     tau(  72) = (   0.2496010   0.9159140   0.7515790  )
        73        In     tau(  73) = (   0.3342930   0.0007650   0.0022280  )
        74        In     tau(  74) = (   0.3352390   0.1661740   0.1672120  )
        75        In     tau(  75) = (   0.5039890   0.0064170   0.1634310  )
        76        In     tau(  76) = (   0.4987120   0.1660930  -0.0009640  )
        77        As     tau(  77) = (   0.4170390   0.0850230   0.0825160  )
        78        As     tau(  78) = (   0.4164980   0.2488970   0.2503870  )
        79        As     tau(  79) = (   0.5844320   0.0861770   0.2497020  )
        80        As     tau(  80) = (   0.5783510   0.2453410   0.0874490  )
        81        In     tau(  81) = (   0.3299900   0.0022820   0.3367330  )
        82        In     tau(  82) = (   0.3295760   0.1638770   0.4959630  )
        83        In     tau(  83) = (   0.4944470   0.0038600   0.5019350  )
        84        In     tau(  84) = (   0.4993970   0.1663480   0.3326950  )
        85        As     tau(  85) = (   0.4151770   0.0847340   0.4153210  )
        86        Sb     tau(  86) = (   0.4170790   0.2486770   0.5824970  )
        87        As     tau(  87) = (   0.5840930   0.0803280   0.5818200  )
        88        As     tau(  88) = (   0.5828930   0.2485380   0.4142710  )
        89        In     tau(  89) = (   0.3335090  -0.0012710   0.6700920  )
        90        In     tau(  90) = (   0.3330090   0.1646540   0.8356870  )
        91        In     tau(  91) = (   0.4977610  -0.0007530   0.8348960  )
        92        In     tau(  92) = (   0.5000270   0.1566120   0.6662170  )
        93        As     tau(  93) = (   0.4150510   0.0811610   0.7527700  )
        94        As     tau(  94) = (   0.4144640   0.2478430   0.9173310  )
        95        As     tau(  95) = (   0.5810160   0.0808540   0.9179890  )
        96        Sb     tau(  96) = (   0.5835640   0.2483690   0.7489030  )
        97        In     tau(  97) = (   0.3323690   0.3305100  -0.0007260  )
        98        In     tau(  98) = (   0.3292210   0.4964060   0.1624010  )
        99        In     tau(  99) = (   0.4972910   0.3316750   0.1675720  )
       100        In     tau( 100) = (   0.4886030   0.5004240   0.0012910  )
       101        As     tau( 101) = (   0.4129900   0.4125130   0.0836650  )
       102        Sb     tau( 102) = (   0.4154340   0.5835230   0.2492740  )
       103        As     tau( 103) = (   0.5809180   0.4114170   0.2524080  )
       104        Sb     tau( 104) = (   0.5813990   0.5854240   0.0826380  )
       105        In     tau( 105) = (   0.3356890   0.3342390   0.3311040  )
       106        In     tau( 106) = (   0.3373800   0.5035180   0.4941790  )
       107        In     tau( 107) = (   0.5041210   0.3352320   0.4953000  )
       108        In     tau( 108) = (   0.5034680   0.4971930   0.3361620  )
       109        As     tau( 109) = (   0.4181250   0.4164040   0.4149420  )
       110        As     tau( 110) = (   0.4160520   0.5814360   0.5826770  )
       111        As     tau( 111) = (   0.5846950   0.4172270   0.5798430  )
       112        As     tau( 112) = (   0.5834400   0.5820290   0.4194950  )
       113        In     tau( 113) = (   0.3320850   0.3327290   0.6729970  )
       114        In     tau( 114) = (   0.3303940   0.5014250   0.8331240  )
       115        In     tau( 115) = (   0.4912300   0.3319110   0.8325640  )
       116        In     tau( 116) = (   0.4947660   0.4928240   0.6622080  )
       117        As     tau( 117) = (   0.4126180   0.4176270   0.7513760  )
       118        As     tau( 118) = (   0.4093160   0.5832780   0.9182790  )
       119        Sb     tau( 119) = (   0.5798080   0.4159840   0.9182150  )
       120        Sb     tau( 120) = (   0.5809570   0.5808360   0.7475610  )
       121        In     tau( 121) = (   0.3302240   0.6677660   0.0005480  )
       122        In     tau( 122) = (   0.3257950   0.8310790   0.1628800  )
       123        In     tau( 123) = (   0.4984860   0.6771980   0.1664920  )
       124        In     tau( 124) = (   0.4945690   0.8392530   0.0053850  )
       125        As     tau( 125) = (   0.4118340   0.7525440   0.0824010  )
       126        Sb     tau( 126) = (   0.4148150   0.9182540   0.2463950  )
       127        As     tau( 127) = (   0.5858950   0.7518740   0.2495280  )
       128        As     tau( 128) = (   0.5833690   0.9193990   0.0838210  )
       129        In     tau( 129) = (   0.3227900   0.6670990   0.3327120  )
       130        In     tau( 130) = (   0.3305850   0.8377990   0.5044860  )
       131        In     tau( 131) = (   0.5022870   0.6627480   0.5045900  )
       132        In     tau( 132) = (   0.5027680   0.8314860   0.3297880  )
       133        Sb     tau( 133) = (   0.4147470   0.7486740   0.4183740  )
       134        As     tau( 134) = (   0.4156180   0.9193510   0.5852470  )
       135        As     tau( 135) = (   0.5832670   0.7524400   0.5805240  )
       136        Sb     tau( 136) = (   0.5851440   0.9197430   0.4172130  )
       137        In     tau( 137) = (   0.3290030   0.6634960   0.6616840  )
       138        In     tau( 138) = (   0.3295400   0.8367160   0.8381050  )
       139        In     tau( 139) = (   0.4950420   0.6628480   0.8384810  )
       140        In     tau( 140) = (   0.5034730   0.8375320   0.6631200  )
       141        Sb     tau( 141) = (   0.4144800   0.7512950   0.7486340  )
       142        As     tau( 142) = (   0.4146750   0.9186040   0.9186040  )
       143        Sb     tau( 143) = (   0.5831020   0.7531180   0.9198390  )
       144        As     tau( 144) = (   0.5816230   0.9208750   0.7489350  )
       145        In     tau( 145) = (   0.6661620   0.0013430   0.0006410  )
       146        In     tau( 146) = (   0.6671970   0.1667210   0.1671760  )
       147        In     tau( 147) = (   0.8328020  -0.0010610   0.1664010  )
       148        In     tau( 148) = (   0.8370320   0.1613130   0.0052650  )
       149        As     tau( 149) = (   0.7490890   0.0820930   0.0853580  )
       150        As     tau( 150) = (   0.7505830   0.2475900   0.2506620  )
       151        As     tau( 151) = (   0.9146290   0.0828640   0.2468540  )
       152        As     tau( 152) = (   0.9181700   0.2476180   0.0843920  )
       153        In     tau( 153) = (   0.6708140   0.0048470   0.3287830  )
       154        In     tau( 154) = (   0.6631480   0.1662130   0.4984610  )
       155        In     tau( 155) = (   0.8271290   0.0029500   0.5003680  )
       156        In     tau( 156) = (   0.8336730   0.1652700   0.3321560  )
       157        As     tau( 157) = (   0.7491170   0.0863820   0.4155540  )
       158        As     tau( 158) = (   0.7465950   0.2477490   0.5809500  )
       159        As     tau( 159) = (   0.9114300   0.0816220   0.5826470  )
       160        As     tau( 160) = (   0.9132900   0.2491040   0.4152890  )
       161        In     tau( 161) = (   0.6664430  -0.0014230   0.6655620  )
       162        In     tau( 162) = (   0.6669000   0.1566710   0.8333530  )
       163        In     tau( 163) = (   0.8345730  -0.0006340   0.8331380  )
       164        In     tau( 164) = (   0.8270930   0.1630820   0.6633740  )
       165        As     tau( 165) = (   0.7499810   0.0784960   0.7487110  )
       166        Sb     tau( 166) = (   0.7508830   0.2468140   0.9179800  )
       167        As     tau( 167) = (   0.9160950   0.0776520   0.9208750  )
       168        Sb     tau( 168) = (   0.9150350   0.2485700   0.7501000  )
       169        In     tau( 169) = (   0.6598650   0.3256040   0.0063840  )
       170        In     tau( 170) = (   0.6609550   0.4956680   0.1719600  )
       171        In     tau( 171) = (   0.8385440   0.3266750   0.1716630  )
       172        In     tau( 172) = (   0.8343870   0.4999360  -0.0051410  )
       173        Sb     tau( 173) = (   0.7513000   0.4132080   0.0856220  )
       174        Sb     tau( 174) = (   0.7493960   0.5852590   0.2526910  )
       175        As     tau( 175) = (   0.9184800   0.4131960   0.2519670  )
       176        Sb     tau( 176) = (   0.9206680   0.5836210   0.0842980  )
       177        In     tau( 177) = (   0.6666260   0.3297860   0.3322120  )
       178        In     tau( 178) = (   0.6689330   0.5002870   0.4989610  )
       179        In     tau( 179) = (   0.8283070   0.3280390   0.4966280  )
       180        In     tau( 180) = (   0.8337230   0.4919220   0.3342300  )
       181        As     tau( 181) = (   0.7473150   0.4130780   0.4159380  )
       182        As     tau( 182) = (   0.7493320   0.5853200   0.5815980  )
       183        Sb     tau( 183) = (   0.9165230   0.4170650   0.5818310  )
       184        Sb     tau( 184) = (   0.9196490   0.5846400   0.4158060  )
       185        In     tau( 185) = (   0.6696860   0.3367810   0.6624170  )
       186        In     tau( 186) = (   0.6717420   0.4991670   0.8333520  )
       187        In     tau( 187) = (   0.8330020   0.3408410   0.8333800  )
       188        In     tau( 188) = (   0.8314070   0.5060950   0.6678490  )
       189        As     tau( 189) = (   0.7512950   0.4194610   0.7475940  )
       190        As     tau( 190) = (   0.7530210   0.5827580   0.9148340  )
       191        As     tau( 191) = (   0.9189020   0.4185950   0.9163240  )
       192        As     tau( 192) = (   0.9197640   0.5825620   0.7497930  )
       193        In     tau( 193) = (   0.6767350   0.6675710   0.0001860  )
       194        In     tau( 194) = (   0.6654670   0.8360090   0.1662500  )
       195        In     tau( 195) = (   0.8350790   0.6750860   0.1666080  )
       196        In     tau( 196) = (   0.8308550   0.8398830   0.0028820  )
       197        As     tau( 197) = (   0.7510200   0.7552090   0.0846160  )
       198        As     tau( 198) = (   0.7498250   0.9167940   0.2481280  )
       199        As     tau( 199) = (   0.9187450   0.7541490   0.2488100  )
       200        As     tau( 200) = (   0.9177320   0.9184620   0.0842640  )
       201        In     tau( 201) = (   0.6618500   0.6698090   0.3394640  )
       202        In     tau( 202) = (   0.6715270   0.8327150   0.5030320  )
       203        In     tau( 203) = (   0.8319220   0.6705050   0.5025150  )
       204        In     tau( 204) = (   0.8290530   0.8302300   0.3302000  )
       205        As     tau( 205) = (   0.7491790   0.7504260   0.4178770  )
       206        As     tau( 206) = (   0.7510760   0.9174220   0.5846510  )
       207        As     tau( 207) = (   0.9186370   0.7507410   0.5837160  )
       208        Sb     tau( 208) = (   0.9162890   0.9156970   0.4163470  )
       209        In     tau( 209) = (   0.6644070   0.6686690   0.6593820  )
       210        In     tau( 210) = (   0.6659770   0.8427610   0.8326170  )
       211        In     tau( 211) = (   0.8365290   0.6617990   0.8325310  )
       212        In     tau( 212) = (   0.8399060   0.8385750   0.6634440  )
       213        Sb     tau( 213) = (   0.7514520   0.7523250   0.7479700  )
       214        As     tau( 214) = (   0.7497920   0.9212270   0.9173090  )
       215        Sb     tau( 215) = (   0.9194310   0.7531310   0.9173710  )
       216        As     tau( 216) = (   0.9188540   0.9194630   0.7490160  )

     number of k points=     8
                       cart. coord. in units 2pi/alat
        k(    1) = (   0.0000000   0.0000000   0.0000000), wk =   0.2500000
        k(    2) = (   0.0000000   0.0000000  -0.5000000), wk =   0.2500000
        k(    3) = (   0.0000000  -0.5000000  -0.5000000), wk =   0.2500000
        k(    4) = (  -0.5000000  -0.5000000  -0.5000000), wk =   0.2500000
        k(    5) = (  -0.5000000   0.0000000   0.0000000), wk =   0.2500000
        k(    6) = (   0.0000000  -0.5000000   0.0000000), wk =   0.2500000
        k(    7) = (  -0.5000000   0.0000000   0.5000000), wk =   0.2500000
        k(    8) = (  -0.5000000   0.5000000   0.0000000), wk =   0.2500000

     Dense  grid:  7699269 G-vectors     FFT dimensions: ( 250, 250, 250)

     Estimated max dynamical RAM per process >       2.96 GB

     Estimated total dynamical RAM >    1880.68 GB

     Initial potential from superposition of free atoms

     starting charge    3023.5448, renormalised to    3024.0000

     STARTING HUBBARD OCCUPATIONS:

     =================== HUBBARD OCCUPATIONS ===================
     ------------------------ ATOM    1 ------------------------
     Tr[ns(  1)] =   1.00000
     eigenvalues:
       0.167  0.167  0.167
     eigenvectors (columns):
       1.000  0.000  0.000
       0.000  1.000  0.000
       0.000  0.000  1.000
     occupation matrix ns (before diag.):
       0.167  0.000  0.000
       0.000  0.167  0.000
       0.000  0.000  0.167
     ------------------------ ATOM    2 ------------------------
     Tr[ns(  2)] =   1.00000
     eigenvalues:
       0.167  0.167  0.167
     eigenvectors (columns):
       1.000  0.000  0.000
       0.000  1.000  0.000
       0.000  0.000  1.000
     occupation matrix ns (before diag.):
       0.167  0.000  0.000
       0.000  0.167  0.000
       0.000  0.000  0.167
     ------------------------ ATOM    3 ------------------------
     Tr[ns(  3)] =   1.00000
     eigenvalues:
       0.167  0.167  0.167
     eigenvectors (columns):
       1.000  0.000  0.000
       0.000  1.000  0.000
       0.000  0.000  1.000
     occupation matrix ns (before diag.):
       0.167  0.000  0.000
       0.000  0.167  0.000
       0.000  0.000  0.167
     ------------------------ ATOM    4 ------------------------
     Tr[ns(  4)] =   1.00000
     eigenvalues:
       0.167  0.167  0.167
     eigenvectors (columns):
       1.000  0.000  0.000
       0.000  1.000  0.000
       0.000  0.000  1.000
     occupation matrix ns (before diag.):
       0.167  0.000  0.000
       0.000  0.167  0.000
       0.000  0.000  0.167
     ------------------------ ATOM    5 ------------------------
     Tr[ns(  5)] =   3.00000
     eigenvalues:
       0.500  0.500  0.500
     eigenvectors (columns):
       1.000  0.000  0.000
       0.000  1.000  0.000
       0.000  0.000  1.000
     occupation matrix ns (before diag.):
       0.500  0.000  0.000
       0.000  0.500  0.000
       0.000  0.000  0.500
     ------------------------ ATOM    6 ------------------------
     Tr[ns(  6)] =   3.00000
     eigenvalues:
       0.500  0.500  0.500
     eigenvectors (columns):
       1.000  0.000  0.000
       0.000  1.000  0.000
       0.000  0.000  1.000
     occupation matrix ns (before diag.):
       0.500  0.000  0.000
       0.000  0.500  0.000
       0.000  0.000  0.500
     ------------------------ ATOM    7 ------------------------
     Tr[ns(  7)] =   3.00000
     eigenvalues:
       0.500  0.500  0.500
     eigenvectors (columns):
       1.000  0.000  0.000
       0.000  1.000  0.000
       0.000  0.000  1.000
     occupation matrix ns (before diag.):
       0.500  0.000  0.000
       0.000  0.500  0.000
       0.000  0.000  0.500
     ------------------------ ATOM    8 ------------------------
     Tr[ns(  8)] =   3.00000
     eigenvalues:
       0.500  0.500  0.500
     eigenvectors (columns):
       1.000  0.000  0.000
       0.000  1.000  0.000
       0.000  0.000  1.000
     occupation matrix ns (before diag.):
       0.500  0.000  0.000
       0.000  0.500  0.000
       0.000  0.000  0.500
     ------------------------ ATOM    9 ------------------------
     Tr[ns(  9)] =   1.00000
     eigenvalues:
       0.167  0.167  0.167
     eigenvectors (columns):
       1.000  0.000  0.000
       0.000  1.000  0.000
       0.000  0.000  1.000
     occupation matrix ns (before diag.):
       0.167  0.000  0.000
       0.000  0.167  0.000
       0.000  0.000  0.167
     ------------------------ ATOM   10 ------------------------
     Tr[ns( 10)] =   1.00000
     eigenvalues:
       0.167  0.167  0.167
     eigenvectors (columns):
       1.000  0.000  0.000
       0.000  1.000  0.000
       0.000  0.000  1.000
     occupation matrix ns (before diag.):
       0.167  0.000  0.000
       0.000  0.167  0.000
       0.000  0.000  0.167
     ------------------------ ATOM   11 ------------------------
     Tr[ns( 11)] =   1.00000
     eigenvalues:
       0.167  0.167  0.167
     eigenvectors (columns):
       1.000  0.000  0.000
       0.000  1.000  0.000
       0.000  0.000  1.000
     occupation matrix ns (before diag.):
       0.167  0.000  0.000
       0.000  0.167  0.000
       0.000  0.000  0.167
     ------------------------ ATOM   12 ------------------------
     Tr[ns( 12)] =   1.00000
     eigenvalues:
       0.167  0.167  0.167
     eigenvectors (columns):
       1.000  0.000  0.000
       0.000  1.000  0.000
       0.000  0.000  1.000
     occupation matrix ns (before diag.):
       0.167  0.000  0.000
       0.000  0.167  0.000
       0.000  0.000  0.167
     ------------------------ ATOM   13 ------------------------
     Tr[ns( 13)] =   3.00000
     eigenvalues:
       0.500  0.500  0.500
     eigenvectors (columns):
       1.000  0.000  0.000
       0.000  1.000  0.000
       0.000  0.000  1.000
     occupation matrix ns (before diag.):
       0.500  0.000  0.000
       0.000  0.500  0.000
       0.000  0.000  0.500
     ------------------------ ATOM   14 ------------------------
     Tr[ns( 14)] =   3.00000
     eigenvalues:
       0.500  0.500  0.500
     eigenvectors (columns):
       1.000  0.000  0.000
       0.000  1.000  0.000
       0.000  0.000  1.000
     occupation matrix ns (before diag.):
       0.500  0.000  0.000
       0.000  0.500  0.000
       0.000  0.000  0.500
     ------------------------ ATOM   15 ------------------------
     Tr[ns( 15)] =   3.00000
     eigenvalues:
       0.500  0.500  0.500
     eigenvectors (columns):
       1.000  0.000  0.000
       0.000  1.000  0.000
       0.000  0.000  1.000
     occupation matrix ns (before diag.):
       0.500  0.000  0.000
       0.000  0.500  0.000
       0.000  0.000  0.500
     ------------------------ ATOM   16 ------------------------
     Tr[ns( 16)] =   3.00000
     eigenvalues:
       0.500  0.500  0.500
     eigenvectors (columns):
       1.000  0.000  0.000
       0.000  1.000  0.000
       0.000  0.000  1.000
     occupation matrix ns (before diag.):
       0.500  0.000  0.000
       0.000  0.500  0.000
       0.000  0.000  0.500
     ------------------------ ATOM   17 ------------------------
     Tr[ns( 17)] =   1.00000
     eigenvalues:
       0.167  0.167  0.167
     eigenvectors (columns):
       1.000  0.000  0.000
       0.000  1.000  0.000
       0.000  0.000  1.000
     occupation matrix ns (before diag.):
       0.167  0.000  0.000
       0.000  0.167  0.000
       0.000  0.000  0.167
     ------------------------ ATOM   18 ------------------------
     Tr[ns( 18)] =   1.00000
     eigenvalues:
       0.167  0.167  0.167
     eigenvectors (columns):
       1.000  0.000  0.000
       0.000  1.000  0.000
       0.000  0.000  1.000
     occupation matrix ns (before diag.):
       0.167  0.000  0.000
       0.000  0.167  0.000
       0.000  0.000  0.167
     ------------------------ ATOM   19 ------------------------
     Tr[ns( 19)] =   1.00000
     eigenvalues:
       0.167  0.167  0.167
     eigenvectors (columns):
       1.000  0.000  0.000
       0.000  1.000  0.000
       0.000  0.000  1.000
     occupation matrix ns (before diag.):
       0.167  0.000  0.000
       0.000  0.167  0.000
       0.000  0.000  0.167
     ------------------------ ATOM   20 ------------------------
     Tr[ns( 20)] =   1.00000
     eigenvalues:
       0.167  0.167  0.167
     eigenvectors (columns):
       1.000  0.000  0.000
       0.000  1.000  0.000
       0.000  0.000  1.000
     occupation matrix ns (before diag.):
       0.167  0.000  0.000
       0.000  0.167  0.000
       0.000  0.000  0.167
     ------------------------ ATOM   21 ------------------------
     Tr[ns( 21)] =   3.00000
     eigenvalues:
       0.500  0.500  0.500
     eigenvectors (columns):
       1.000  0.000  0.000
       0.000  1.000  0.000
       0.000  0.000  1.000
     occupation matrix ns (before diag.):
       0.500  0.000  0.000
       0.000  0.500  0.000
       0.000  0.000  0.500
     ------------------------ ATOM   22 ------------------------
     Tr[ns( 22)] =   3.00000
     eigenvalues:
       0.500  0.500  0.500
     eigenvectors (columns):
       1.000  0.000  0.000
       0.000  1.000  0.000
       0.000  0.000  1.000
     occupation matrix ns (before diag.):
       0.500  0.000  0.000
       0.000  0.500  0.000
       0.000  0.000  0.500
     ------------------------ ATOM   23 ------------------------
     Tr[ns( 23)] =   3.00000
     eigenvalues:
       0.500  0.500  0.500
     eigenvectors (columns):
       1.000  0.000  0.000
       0.000  1.000  0.000
       0.000  0.000  1.000
     occupation matrix ns (before diag.):
       0.500  0.000  0.000
       0.000  0.500  0.000
       0.000  0.000  0.500
     ------------------------ ATOM   24 ------------------------
     Tr[ns( 24)] =   3.00000
     eigenvalues:
       0.500  0.500  0.500
     eigenvectors (columns):
       1.000  0.000  0.000
       0.000  1.000  0.000
       0.000  0.000  1.000
     occupation matrix ns (before diag.):
       0.500  0.000  0.000
       0.000  0.500  0.000
       0.000  0.000  0.500
     ------------------------ ATOM   25 ------------------------
     Tr[ns( 25)] =   1.00000
     eigenvalues:
       0.167  0.167  0.167
     eigenvectors (columns):
       1.000  0.000  0.000
       0.000  1.000  0.000
       0.000  0.000  1.000
     occupation matrix ns (before diag.):
       0.167  0.000  0.000
       0.000  0.167  0.000
       0.000  0.000  0.167
     ------------------------ ATOM   26 ------------------------
     Tr[ns( 26)] =   1.00000
     eigenvalues:
       0.167  0.167  0.167
     eigenvectors (columns):
       1.000  0.000  0.000
       0.000  1.000  0.000
       0.000  0.000  1.000
     occupation matrix ns (before diag.):
       0.167  0.000  0.000
       0.000  0.167  0.000
       0.000  0.000  0.167
     ------------------------ ATOM   27 ------------------------
     Tr[ns( 27)] =   1.00000
     eigenvalues:
       0.167  0.167  0.167
     eigenvectors (columns):
       1.000  0.000  0.000
       0.000  1.000  0.000
       0.000  0.000  1.000
     occupation matrix ns (before diag.):
       0.167  0.000  0.000
       0.000  0.167  0.000
       0.000  0.000  0.167
     ------------------------ ATOM   28 ------------------------
     Tr[ns( 28)] =   1.00000
     eigenvalues:
       0.167  0.167  0.167
     eigenvectors (columns):
       1.000  0.000  0.000
       0.000  1.000  0.000
       0.000  0.000  1.000
     occupation matrix ns (before diag.):
       0.167  0.000  0.000
       0.000  0.167  0.000
       0.000  0.000  0.167
     ------------------------ ATOM   29 ------------------------
     Tr[ns( 29)] =   3.00000
     eigenvalues:
       0.500  0.500  0.500
     eigenvectors (columns):
       1.000  0.000  0.000
       0.000  1.000  0.000
       0.000  0.000  1.000
     occupation matrix ns (before diag.):
       0.500  0.000  0.000
       0.000  0.500  0.000
       0.000  0.000  0.500
     ------------------------ ATOM   30 ------------------------
     Tr[ns( 30)] =   3.00000
     eigenvalues:
       0.500  0.500  0.500
     eigenvectors (columns):
       1.000  0.000  0.000
       0.000  1.000  0.000
       0.000  0.000  1.000
     occupation matrix ns (before diag.):
       0.500  0.000  0.000
       0.000  0.500  0.000
       0.000  0.000  0.500
     ------------------------ ATOM   31 ------------------------
     Tr[ns( 31)] =   3.00000
     eigenvalues:
       0.500  0.500  0.500
     eigenvectors (columns):
       1.000  0.000  0.000
       0.000  1.000  0.000
       0.000  0.000  1.000
     occupation matrix ns (before diag.):
       0.500  0.000  0.000
       0.000  0.500  0.000
       0.000  0.000  0.500
     ------------------------ ATOM   32 ------------------------
     Tr[ns( 32)] =   3.00000
     eigenvalues:
       0.500  0.500  0.500
     eigenvectors (columns):
       1.000  0.000  0.000
       0.000  1.000  0.000
       0.000  0.000  1.000
     occupation matrix ns (before diag.):
       0.500  0.000  0.000
       0.000  0.500  0.000
       0.000  0.000  0.500
     ------------------------ ATOM   33 ------------------------
     Tr[ns( 33)] =   1.00000
     eigenvalues:
       0.167  0.167  0.167
     eigenvectors (columns):
       1.000  0.000  0.000
       0.000  1.000  0.000
       0.000  0.000  1.000
     occupation matrix ns (before diag.):
       0.167  0.000  0.000
       0.000  0.167  0.000
       0.000  0.000  0.167
     ------------------------ ATOM   34 ------------------------
     Tr[ns( 34)] =   1.00000
     eigenvalues:
       0.167  0.167  0.167
     eigenvectors (columns):
       1.000  0.000  0.000
       0.000  1.000  0.000
       0.000  0.000  1.000
     occupation matrix ns (before diag.):
       0.167  0.000  0.000
       0.000  0.167  0.000
       0.000  0.000  0.167
     ------------------------ ATOM   35 ------------------------
     Tr[ns( 35)] =   1.00000
     eigenvalues:
       0.167  0.167  0.167
     eigenvectors (columns):
       1.000  0.000  0.000
       0.000  1.000  0.000
       0.000  0.000  1.000
     occupation matrix ns (before diag.):
       0.167  0.000  0.000
       0.000  0.167  0.000
       0.000  0.000  0.167
     ------------------------ ATOM   36 ------------------------
     Tr[ns( 36)] =   1.00000
     eigenvalues:
       0.167  0.167  0.167
     eigenvectors (columns):
       1.000  0.000  0.000
       0.000  1.000  0.000
       0.000  0.000  1.000
     occupation matrix ns (before diag.):
       0.167  0.000  0.000
       0.000  0.167  0.000
       0.000  0.000  0.167
     ------------------------ ATOM   37 ------------------------
     Tr[ns( 37)] =   3.00000
     eigenvalues:
       0.500  0.500  0.500
     eigenvectors (columns):
       1.000  0.000  0.000
       0.000  1.000  0.000
       0.000  0.000  1.000
     occupation matrix ns (before diag.):
       0.500  0.000  0.000
       0.000  0.500  0.000
       0.000  0.000  0.500
     ------------------------ ATOM   38 ------------------------
     Tr[ns( 38)] =   3.00000
     eigenvalues:
       0.500  0.500  0.500
     eigenvectors (columns):
       1.000  0.000  0.000
       0.000  1.000  0.000
       0.000  0.000  1.000
     occupation matrix ns (before diag.):
       0.500  0.000  0.000
       0.000  0.500  0.000
       0.000  0.000  0.500
     ------------------------ ATOM   39 ------------------------
     Tr[ns( 39)] =   3.00000
     eigenvalues:
       0.500  0.500  0.500
     eigenvectors (columns):
       1.000  0.000  0.000
       0.000  1.000  0.000
       0.000  0.000  1.000
     occupation matrix ns (before diag.):
       0.500  0.000  0.000
       0.000  0.500  0.000
       0.000  0.000  0.500
     ------------------------ ATOM   40 ------------------------
     Tr[ns( 40)] =   3.00000
     eigenvalues:
       0.500  0.500  0.500
     eigenvectors (columns):
       1.000  0.000  0.000
       0.000  1.000  0.000
       0.000  0.000  1.000
     occupation matrix ns (before diag.):
       0.500  0.000  0.000
       0.000  0.500  0.000
       0.000  0.000  0.500
     ------------------------ ATOM   41 ------------------------
     Tr[ns( 41)] =   1.00000
     eigenvalues:
       0.167  0.167  0.167
     eigenvectors (columns):
       1.000  0.000  0.000
       0.000  1.000  0.000
       0.000  0.000  1.000
     occupation matrix ns (before diag.):
       0.167  0.000  0.000
       0.000  0.167  0.000
       0.000  0.000  0.167
     ------------------------ ATOM   42 ------------------------
     Tr[ns( 42)] =   1.00000
     eigenvalues:
       0.167  0.167  0.167
     eigenvectors (columns):
       1.000  0.000  0.000
       0.000  1.000  0.000
       0.000  0.000  1.000
     occupation matrix ns (before diag.):
       0.167  0.000  0.000
       0.000  0.167  0.000
       0.000  0.000  0.167
     ------------------------ ATOM   43 ------------------------
     Tr[ns( 43)] =   1.00000
     eigenvalues:
       0.167  0.167  0.167
     eigenvectors (columns):
       1.000  0.000  0.000
       0.000  1.000  0.000
       0.000  0.000  1.000
     occupation matrix ns (before diag.):
       0.167  0.000  0.000
       0.000  0.167  0.000
       0.000  0.000  0.167
     ------------------------ ATOM   44 ------------------------
     Tr[ns( 44)] =   1.00000
     eigenvalues:
       0.167  0.167  0.167
     eigenvectors (columns):
       1.000  0.000  0.000
       0.000  1.000  0.000
       0.000  0.000  1.000
     occupation matrix ns (before diag.):
       0.167  0.000  0.000
       0.000  0.167  0.000
       0.000  0.000  0.167
     ------------------------ ATOM   45 ------------------------
     Tr[ns( 45)] =   3.00000
     eigenvalues:
       0.500  0.500  0.500
     eigenvectors (columns):
       1.000  0.000  0.000
       0.000  1.000  0.000
       0.000  0.000  1.000
     occupation matrix ns (before diag.):
       0.500  0.000  0.000
       0.000  0.500  0.000
       0.000  0.000  0.500
     ------------------------ ATOM   46 ------------------------
     Tr[ns( 46)] =   3.00000
     eigenvalues:
       0.500  0.500  0.500
     eigenvectors (columns):
       1.000  0.000  0.000
       0.000  1.000  0.000
       0.000  0.000  1.000
     occupation matrix ns (before diag.):
       0.500  0.000  0.000
       0.000  0.500  0.000
       0.000  0.000  0.500
     ------------------------ ATOM   47 ------------------------
     Tr[ns( 47)] =   3.00000
     eigenvalues:
       0.500  0.500  0.500
     eigenvectors (columns):
       1.000  0.000  0.000
       0.000  1.000  0.000
       0.000  0.000  1.000
     occupation matrix ns (before diag.):
       0.500  0.000  0.000
       0.000  0.500  0.000
       0.000  0.000  0.500
     ------------------------ ATOM   48 ------------------------
     Tr[ns( 48)] =   3.00000
     eigenvalues:
       0.500  0.500  0.500
     eigenvectors (columns):
       1.000  0.000  0.000
       0.000  1.000  0.000
       0.000  0.000  1.000
     occupation matrix ns (before diag.):
       0.500  0.000  0.000
       0.000  0.500  0.000
       0.000  0.000  0.500
     ------------------------ ATOM   49 ------------------------
     Tr[ns( 49)] =   1.00000
     eigenvalues:
       0.167  0.167  0.167
     eigenvectors (columns):
       1.000  0.000  0.000
       0.000  1.000  0.000
       0.000  0.000  1.000
     occupation matrix ns (before diag.):
       0.167  0.000  0.000
       0.000  0.167  0.000
       0.000  0.000  0.167
     ------------------------ ATOM   50 ------------------------
     Tr[ns( 50)] =   1.00000
     eigenvalues:
       0.167  0.167  0.167
     eigenvectors (columns):
       1.000  0.000  0.000
       0.000  1.000  0.000
       0.000  0.000  1.000
     occupation matrix ns (before diag.):
       0.167  0.000  0.000
       0.000  0.167  0.000
       0.000  0.000  0.167
     ------------------------ ATOM   51 ------------------------
     Tr[ns( 51)] =   1.00000
     eigenvalues:
       0.167  0.167  0.167
     eigenvectors (columns):
       1.000  0.000  0.000
       0.000  1.000  0.000
       0.000  0.000  1.000
     occupation matrix ns (before diag.):
       0.167  0.000  0.000
       0.000  0.167  0.000
       0.000  0.000  0.167
     ------------------------ ATOM   52 ------------------------
     Tr[ns( 52)] =   1.00000
     eigenvalues:
       0.167  0.167  0.167
     eigenvectors (columns):
       1.000  0.000  0.000
       0.000  1.000  0.000
       0.000  0.000  1.000
     occupation matrix ns (before diag.):
       0.167  0.000  0.000
       0.000  0.167  0.000
       0.000  0.000  0.167
     ------------------------ ATOM   53 ------------------------
     Tr[ns( 53)] =   3.00000
     eigenvalues:
       0.500  0.500  0.500
     eigenvectors (columns):
       1.000  0.000  0.000
       0.000  1.000  0.000
       0.000  0.000  1.000
     occupation matrix ns (before diag.):
       0.500  0.000  0.000
       0.000  0.500  0.000
       0.000  0.000  0.500
     ------------------------ ATOM   54 ------------------------
     Tr[ns( 54)] =   3.00000
     eigenvalues:
       0.500  0.500  0.500
     eigenvectors (columns):
       1.000  0.000  0.000
       0.000  1.000  0.000
       0.000  0.000  1.000
     occupation matrix ns (before diag.):
       0.500  0.000  0.000
       0.000  0.500  0.000
       0.000  0.000  0.500
     ------------------------ ATOM   55 ------------------------
     Tr[ns( 55)] =   3.00000
     eigenvalues:
       0.500  0.500  0.500
     eigenvectors (columns):
       1.000  0.000  0.000
       0.000  1.000  0.000
       0.000  0.000  1.000
     occupation matrix ns (before diag.):
       0.500  0.000  0.000
       0.000  0.500  0.000
       0.000  0.000  0.500
     ------------------------ ATOM   56 ------------------------
     Tr[ns( 56)] =   3.00000
     eigenvalues:
       0.500  0.500  0.500
     eigenvectors (columns):
       1.000  0.000  0.000
       0.000  1.000  0.000
       0.000  0.000  1.000
     occupation matrix ns (before diag.):
       0.500  0.000  0.000
       0.000  0.500  0.000
       0.000  0.000  0.500
     ------------------------ ATOM   57 ------------------------
     Tr[ns( 57)] =   1.00000
     eigenvalues:
       0.167  0.167  0.167
     eigenvectors (columns):
       1.000  0.000  0.000
       0.000  1.000  0.000
       0.000  0.000  1.000
     occupation matrix ns (before diag.):
       0.167  0.000  0.000
       0.000  0.167  0.000
       0.000  0.000  0.167
     ------------------------ ATOM   58 ------------------------
     Tr[ns( 58)] =   1.00000
     eigenvalues:
       0.167  0.167  0.167
     eigenvectors (columns):
       1.000  0.000  0.000
       0.000  1.000  0.000
       0.000  0.000  1.000
     occupation matrix ns (before diag.):
       0.167  0.000  0.000
       0.000  0.167  0.000
       0.000  0.000  0.167
     ------------------------ ATOM   59 ------------------------
     Tr[ns( 59)] =   1.00000
     eigenvalues:
       0.167  0.167  0.167
     eigenvectors (columns):
       1.000  0.000  0.000
       0.000  1.000  0.000
       0.000  0.000  1.000
     occupation matrix ns (before diag.):
       0.167  0.000  0.000
       0.000  0.167  0.000
       0.000  0.000  0.167
     ------------------------ ATOM   60 ------------------------
     Tr[ns( 60)] =   1.00000
     eigenvalues:
       0.167  0.167  0.167
     eigenvectors (columns):
       1.000  0.000  0.000
       0.000  1.000  0.000
       0.000  0.000  1.000
     occupation matrix ns (before diag.):
       0.167  0.000  0.000
       0.000  0.167  0.000
       0.000  0.000  0.167
     ------------------------ ATOM   61 ------------------------
     Tr[ns( 61)] =   3.00000
     eigenvalues:
       0.500  0.500  0.500
     eigenvectors (columns):
       1.000  0.000  0.000
       0.000  1.000  0.000
       0.000  0.000  1.000
     occupation matrix ns (before diag.):
       0.500  0.000  0.000
       0.000  0.500  0.000
       0.000  0.000  0.500
     ------------------------ ATOM   62 ------------------------
     Tr[ns( 62)] =   3.00000
     eigenvalues:
       0.500  0.500  0.500
     eigenvectors (columns):
       1.000  0.000  0.000
       0.000  1.000  0.000
       0.000  0.000  1.000
     occupation matrix ns (before diag.):
       0.500  0.000  0.000
       0.000  0.500  0.000
       0.000  0.000  0.500
     ------------------------ ATOM   63 ------------------------
     Tr[ns( 63)] =   3.00000
     eigenvalues:
       0.500  0.500  0.500
     eigenvectors (columns):
       1.000  0.000  0.000
       0.000  1.000  0.000
       0.000  0.000  1.000
     occupation matrix ns (before diag.):
       0.500  0.000  0.000
       0.000  0.500  0.000
       0.000  0.000  0.500
     ------------------------ ATOM   64 ------------------------
     Tr[ns( 64)] =   3.00000
     eigenvalues:
       0.500  0.500  0.500
     eigenvectors (columns):
       1.000  0.000  0.000
       0.000  1.000  0.000
       0.000  0.000  1.000
     occupation matrix ns (before diag.):
       0.500  0.000  0.000
       0.000  0.500  0.000
       0.000  0.000  0.500
     ------------------------ ATOM   65 ------------------------
     Tr[ns( 65)] =   1.00000
     eigenvalues:
       0.167  0.167  0.167
     eigenvectors (columns):
       1.000  0.000  0.000
       0.000  1.000  0.000
       0.000  0.000  1.000
     occupation matrix ns (before diag.):
       0.167  0.000  0.000
       0.000  0.167  0.000
       0.000  0.000  0.167
     ------------------------ ATOM   66 ------------------------
     Tr[ns( 66)] =   1.00000
     eigenvalues:
       0.167  0.167  0.167
     eigenvectors (columns):
       1.000  0.000  0.000
       0.000  1.000  0.000
       0.000  0.000  1.000
     occupation matrix ns (before diag.):
       0.167  0.000  0.000
       0.000  0.167  0.000
       0.000  0.000  0.167
     ------------------------ ATOM   67 ------------------------
     Tr[ns( 67)] =   1.00000
     eigenvalues:
       0.167  0.167  0.167
     eigenvectors (columns):
       1.000  0.000  0.000
       0.000  1.000  0.000
       0.000  0.000  1.000
     occupation matrix ns (before diag.):
       0.167  0.000  0.000
       0.000  0.167  0.000
       0.000  0.000  0.167
     ------------------------ ATOM   68 ------------------------
     Tr[ns( 68)] =   1.00000
     eigenvalues:
       0.167  0.167  0.167
     eigenvectors (columns):
       1.000  0.000  0.000
       0.000  1.000  0.000
       0.000  0.000  1.000
     occupation matrix ns (before diag.):
       0.167  0.000  0.000
       0.000  0.167  0.000
       0.000  0.000  0.167
     ------------------------ ATOM   69 ------------------------
     Tr[ns( 69)] =   3.00000
     eigenvalues:
       0.500  0.500  0.500
     eigenvectors (columns):
       1.000  0.000  0.000
       0.000  1.000  0.000
       0.000  0.000  1.000
     occupation matrix ns (before diag.):
       0.500  0.000  0.000
       0.000  0.500  0.000
       0.000  0.000  0.500
     ------------------------ ATOM   70 ------------------------
     Tr[ns( 70)] =   3.00000
     eigenvalues:
       0.500  0.500  0.500
     eigenvectors (columns):
       1.000  0.000  0.000
       0.000  1.000  0.000
       0.000  0.000  1.000
     occupation matrix ns (before diag.):
       0.500  0.000  0.000
       0.000  0.500  0.000
       0.000  0.000  0.500
     ------------------------ ATOM   71 ------------------------
     Tr[ns( 71)] =   3.00000
     eigenvalues:
       0.500  0.500  0.500
     eigenvectors (columns):
       1.000  0.000  0.000
       0.000  1.000  0.000
       0.000  0.000  1.000
     occupation matrix ns (before diag.):
       0.500  0.000  0.000
       0.000  0.500  0.000
       0.000  0.000  0.500
     ------------------------ ATOM   72 ------------------------
     Tr[ns( 72)] =   3.00000
     eigenvalues:
       0.500  0.500  0.500
     eigenvectors (columns):
       1.000  0.000  0.000
       0.000  1.000  0.000
       0.000  0.000  1.000
     occupation matrix ns (before diag.):
       0.500  0.000  0.000
       0.000  0.500  0.000
       0.000  0.000  0.500
     ------------------------ ATOM   73 ------------------------
     Tr[ns( 73)] =   1.00000
     eigenvalues:
       0.167  0.167  0.167
     eigenvectors (columns):
       1.000  0.000  0.000
       0.000  1.000  0.000
       0.000  0.000  1.000
     occupation matrix ns (before diag.):
       0.167  0.000  0.000
       0.000  0.167  0.000
       0.000  0.000  0.167
     ------------------------ ATOM   74 ------------------------
     Tr[ns( 74)] =   1.00000
     eigenvalues:
       0.167  0.167  0.167
     eigenvectors (columns):
       1.000  0.000  0.000
       0.000  1.000  0.000
       0.000  0.000  1.000
     occupation matrix ns (before diag.):
       0.167  0.000  0.000
       0.000  0.167  0.000
       0.000  0.000  0.167
     ------------------------ ATOM   75 ------------------------
     Tr[ns( 75)] =   1.00000
     eigenvalues:
       0.167  0.167  0.167
     eigenvectors (columns):
       1.000  0.000  0.000
       0.000  1.000  0.000
       0.000  0.000  1.000
     occupation matrix ns (before diag.):
       0.167  0.000  0.000
       0.000  0.167  0.000
       0.000  0.000  0.167
     ------------------------ ATOM   76 ------------------------
     Tr[ns( 76)] =   1.00000
     eigenvalues:
       0.167  0.167  0.167
     eigenvectors (columns):
       1.000  0.000  0.000
       0.000  1.000  0.000
       0.000  0.000  1.000
     occupation matrix ns (before diag.):
       0.167  0.000  0.000
       0.000  0.167  0.000
       0.000  0.000  0.167
     ------------------------ ATOM   77 ------------------------
     Tr[ns( 77)] =   3.00000
     eigenvalues:
       0.500  0.500  0.500
     eigenvectors (columns):
       1.000  0.000  0.000
       0.000  1.000  0.000
       0.000  0.000  1.000
     occupation matrix ns (before diag.):
       0.500  0.000  0.000
       0.000  0.500  0.000
       0.000  0.000  0.500
     ------------------------ ATOM   78 ------------------------
     Tr[ns( 78)] =   3.00000
     eigenvalues:
       0.500  0.500  0.500
     eigenvectors (columns):
       1.000  0.000  0.000
       0.000  1.000  0.000
       0.000  0.000  1.000
     occupation matrix ns (before diag.):
       0.500  0.000  0.000
       0.000  0.500  0.000
       0.000  0.000  0.500
     ------------------------ ATOM   79 ------------------------
     Tr[ns( 79)] =   3.00000
     eigenvalues:
       0.500  0.500  0.500
     eigenvectors (columns):
       1.000  0.000  0.000
       0.000  1.000  0.000
       0.000  0.000  1.000
     occupation matrix ns (before diag.):
       0.500  0.000  0.000
       0.000  0.500  0.000
       0.000  0.000  0.500
     ------------------------ ATOM   80 ------------------------
     Tr[ns( 80)] =   3.00000
     eigenvalues:
       0.500  0.500  0.500
     eigenvectors (columns):
       1.000  0.000  0.000
       0.000  1.000  0.000
       0.000  0.000  1.000
     occupation matrix ns (before diag.):
       0.500  0.000  0.000
       0.000  0.500  0.000
       0.000  0.000  0.500
     ------------------------ ATOM   81 ------------------------
     Tr[ns( 81)] =   1.00000
     eigenvalues:
       0.167  0.167  0.167
     eigenvectors (columns):
       1.000  0.000  0.000
       0.000  1.000  0.000
       0.000  0.000  1.000
     occupation matrix ns (before diag.):
       0.167  0.000  0.000
       0.000  0.167  0.000
       0.000  0.000  0.167
     ------------------------ ATOM   82 ------------------------
     Tr[ns( 82)] =   1.00000
     eigenvalues:
       0.167  0.167  0.167
     eigenvectors (columns):
       1.000  0.000  0.000
       0.000  1.000  0.000
       0.000  0.000  1.000
     occupation matrix ns (before diag.):
       0.167  0.000  0.000
       0.000  0.167  0.000
       0.000  0.000  0.167
     ------------------------ ATOM   83 ------------------------
     Tr[ns( 83)] =   1.00000
     eigenvalues:
       0.167  0.167  0.167
     eigenvectors (columns):
       1.000  0.000  0.000
       0.000  1.000  0.000
       0.000  0.000  1.000
     occupation matrix ns (before diag.):
       0.167  0.000  0.000
       0.000  0.167  0.000
       0.000  0.000  0.167
     ------------------------ ATOM   84 ------------------------
     Tr[ns( 84)] =   1.00000
     eigenvalues:
       0.167  0.167  0.167
     eigenvectors (columns):
       1.000  0.000  0.000
       0.000  1.000  0.000
       0.000  0.000  1.000
     occupation matrix ns (before diag.):
       0.167  0.000  0.000
       0.000  0.167  0.000
       0.000  0.000  0.167
     ------------------------ ATOM   85 ------------------------
     Tr[ns( 85)] =   3.00000
     eigenvalues:
       0.500  0.500  0.500
     eigenvectors (columns):
       1.000  0.000  0.000
       0.000  1.000  0.000
       0.000  0.000  1.000
     occupation matrix ns (before diag.):
       0.500  0.000  0.000
       0.000  0.500  0.000
       0.000  0.000  0.500
     ------------------------ ATOM   86 ------------------------
     Tr[ns( 86)] =   3.00000
     eigenvalues:
       0.500  0.500  0.500
     eigenvectors (columns):
       1.000  0.000  0.000
       0.000  1.000  0.000
       0.000  0.000  1.000
     occupation matrix ns (before diag.):
       0.500  0.000  0.000
       0.000  0.500  0.000
       0.000  0.000  0.500
     ------------------------ ATOM   87 ------------------------
     Tr[ns( 87)] =   3.00000
     eigenvalues:
       0.500  0.500  0.500
     eigenvectors (columns):
       1.000  0.000  0.000
       0.000  1.000  0.000
       0.000  0.000  1.000
     occupation matrix ns (before diag.):
       0.500  0.000  0.000
       0.000  0.500  0.000
       0.000  0.000  0.500
     ------------------------ ATOM   88 ------------------------
     Tr[ns( 88)] =   3.00000
     eigenvalues:
       0.500  0.500  0.500
     eigenvectors (columns):
       1.000  0.000  0.000
       0.000  1.000  0.000
       0.000  0.000  1.000
     occupation matrix ns (before diag.):
       0.500  0.000  0.000
       0.000  0.500  0.000
       0.000  0.000  0.500
     ------------------------ ATOM   89 ------------------------
     Tr[ns( 89)] =   1.00000
     eigenvalues:
       0.167  0.167  0.167
     eigenvectors (columns):
       1.000  0.000  0.000
       0.000  1.000  0.000
       0.000  0.000  1.000
     occupation matrix ns (before diag.):
       0.167  0.000  0.000
       0.000  0.167  0.000
       0.000  0.000  0.167
     ------------------------ ATOM   90 ------------------------
     Tr[ns( 90)] =   1.00000
     eigenvalues:
       0.167  0.167  0.167
     eigenvectors (columns):
       1.000  0.000  0.000
       0.000  1.000  0.000
       0.000  0.000  1.000
     occupation matrix ns (before diag.):
       0.167  0.000  0.000
       0.000  0.167  0.000
       0.000  0.000  0.167
     ------------------------ ATOM   91 ------------------------
     Tr[ns( 91)] =   1.00000
     eigenvalues:
       0.167  0.167  0.167
     eigenvectors (columns):
       1.000  0.000  0.000
       0.000  1.000  0.000
       0.000  0.000  1.000
     occupation matrix ns (before diag.):
       0.167  0.000  0.000
       0.000  0.167  0.000
       0.000  0.000  0.167
     ------------------------ ATOM   92 ------------------------
     Tr[ns( 92)] =   1.00000
     eigenvalues:
       0.167  0.167  0.167
     eigenvectors (columns):
       1.000  0.000  0.000
       0.000  1.000  0.000
       0.000  0.000  1.000
     occupation matrix ns (before diag.):
       0.167  0.000  0.000
       0.000  0.167  0.000
       0.000  0.000  0.167
     ------------------------ ATOM   93 ------------------------
     Tr[ns( 93)] =   3.00000
     eigenvalues:
       0.500  0.500  0.500
     eigenvectors (columns):
       1.000  0.000  0.000
       0.000  1.000  0.000
       0.000  0.000  1.000
     occupation matrix ns (before diag.):
       0.500  0.000  0.000
       0.000  0.500  0.000
       0.000  0.000  0.500
     ------------------------ ATOM   94 ------------------------
     Tr[ns( 94)] =   3.00000
     eigenvalues:
       0.500  0.500  0.500
     eigenvectors (columns):
       1.000  0.000  0.000
       0.000  1.000  0.000
       0.000  0.000  1.000
     occupation matrix ns (before diag.):
       0.500  0.000  0.000
       0.000  0.500  0.000
       0.000  0.000  0.500
     ------------------------ ATOM   95 ------------------------
     Tr[ns( 95)] =   3.00000
     eigenvalues:
       0.500  0.500  0.500
     eigenvectors (columns):
       1.000  0.000  0.000
       0.000  1.000  0.000
       0.000  0.000  1.000
     occupation matrix ns (before diag.):
       0.500  0.000  0.000
       0.000  0.500  0.000
       0.000  0.000  0.500
     ------------------------ ATOM   96 ------------------------
     Tr[ns( 96)] =   3.00000
     eigenvalues:
       0.500  0.500  0.500
     eigenvectors (columns):
       1.000  0.000  0.000
       0.000  1.000  0.000
       0.000  0.000  1.000
     occupation matrix ns (before diag.):
       0.500  0.000  0.000
       0.000  0.500  0.000
       0.000  0.000  0.500
     ------------------------ ATOM   97 ------------------------
     Tr[ns( 97)] =   1.00000
     eigenvalues:
       0.167  0.167  0.167
     eigenvectors (columns):
       1.000  0.000  0.000
       0.000  1.000  0.000
       0.000  0.000  1.000
     occupation matrix ns (before diag.):
       0.167  0.000  0.000
       0.000  0.167  0.000
       0.000  0.000  0.167
     ------------------------ ATOM   98 ------------------------
     Tr[ns( 98)] =   1.00000
     eigenvalues:
       0.167  0.167  0.167
     eigenvectors (columns):
       1.000  0.000  0.000
       0.000  1.000  0.000
       0.000  0.000  1.000
     occupation matrix ns (before diag.):
       0.167  0.000  0.000
       0.000  0.167  0.000
       0.000  0.000  0.167
     ------------------------ ATOM   99 ------------------------
     Tr[ns( 99)] =   1.00000
     eigenvalues:
       0.167  0.167  0.167
     eigenvectors (columns):
       1.000  0.000  0.000
       0.000  1.000  0.000
       0.000  0.000  1.000
     occupation matrix ns (before diag.):
       0.167  0.000  0.000
       0.000  0.167  0.000
       0.000  0.000  0.167
     ------------------------ ATOM  100 ------------------------
     Tr[ns(100)] =   1.00000
     eigenvalues:
       0.167  0.167  0.167
     eigenvectors (columns):
       1.000  0.000  0.000
       0.000  1.000  0.000
       0.000  0.000  1.000
     occupation matrix ns (before diag.):
       0.167  0.000  0.000
       0.000  0.167  0.000
       0.000  0.000  0.167
     ------------------------ ATOM  101 ------------------------
     Tr[ns(101)] =   3.00000
     eigenvalues:
       0.500  0.500  0.500
     eigenvectors (columns):
       1.000  0.000  0.000
       0.000  1.000  0.000
       0.000  0.000  1.000
     occupation matrix ns (before diag.):
       0.500  0.000  0.000
       0.000  0.500  0.000
       0.000  0.000  0.500
     ------------------------ ATOM  102 ------------------------
     Tr[ns(102)] =   3.00000
     eigenvalues:
       0.500  0.500  0.500
     eigenvectors (columns):
       1.000  0.000  0.000
       0.000  1.000  0.000
       0.000  0.000  1.000
     occupation matrix ns (before diag.):
       0.500  0.000  0.000
       0.000  0.500  0.000
       0.000  0.000  0.500
     ------------------------ ATOM  103 ------------------------
     Tr[ns(103)] =   3.00000
     eigenvalues:
       0.500  0.500  0.500
     eigenvectors (columns):
       1.000  0.000  0.000
       0.000  1.000  0.000
       0.000  0.000  1.000
     occupation matrix ns (before diag.):
       0.500  0.000  0.000
       0.000  0.500  0.000
       0.000  0.000  0.500
     ------------------------ ATOM  104 ------------------------
     Tr[ns(104)] =   3.00000
     eigenvalues:
       0.500  0.500  0.500
     eigenvectors (columns):
       1.000  0.000  0.000
       0.000  1.000  0.000
       0.000  0.000  1.000
     occupation matrix ns (before diag.):
       0.500  0.000  0.000
       0.000  0.500  0.000
       0.000  0.000  0.500
     ------------------------ ATOM  105 ------------------------
     Tr[ns(105)] =   1.00000
     eigenvalues:
       0.167  0.167  0.167
     eigenvectors (columns):
       1.000  0.000  0.000
       0.000  1.000  0.000
       0.000  0.000  1.000
     occupation matrix ns (before diag.):
       0.167  0.000  0.000
       0.000  0.167  0.000
       0.000  0.000  0.167
     ------------------------ ATOM  106 ------------------------
     Tr[ns(106)] =   1.00000
     eigenvalues:
       0.167  0.167  0.167
     eigenvectors (columns):
       1.000  0.000  0.000
       0.000  1.000  0.000
       0.000  0.000  1.000
     occupation matrix ns (before diag.):
       0.167  0.000  0.000
       0.000  0.167  0.000
       0.000  0.000  0.167
     ------------------------ ATOM  107 ------------------------
     Tr[ns(107)] =   1.00000
     eigenvalues:
       0.167  0.167  0.167
     eigenvectors (columns):
       1.000  0.000  0.000
       0.000  1.000  0.000
       0.000  0.000  1.000
     occupation matrix ns (before diag.):
       0.167  0.000  0.000
       0.000  0.167  0.000
       0.000  0.000  0.167
     ------------------------ ATOM  108 ------------------------
     Tr[ns(108)] =   1.00000
     eigenvalues:
       0.167  0.167  0.167
     eigenvectors (columns):
       1.000  0.000  0.000
       0.000  1.000  0.000
       0.000  0.000  1.000
     occupation matrix ns (before diag.):
       0.167  0.000  0.000
       0.000  0.167  0.000
       0.000  0.000  0.167
     ------------------------ ATOM  109 ------------------------
     Tr[ns(109)] =   3.00000
     eigenvalues:
       0.500  0.500  0.500
     eigenvectors (columns):
       1.000  0.000  0.000
       0.000  1.000  0.000
       0.000  0.000  1.000
     occupation matrix ns (before diag.):
       0.500  0.000  0.000
       0.000  0.500  0.000
       0.000  0.000  0.500
     ------------------------ ATOM  110 ------------------------
     Tr[ns(110)] =   3.00000
     eigenvalues:
       0.500  0.500  0.500
     eigenvectors (columns):
       1.000  0.000  0.000
       0.000  1.000  0.000
       0.000  0.000  1.000
     occupation matrix ns (before diag.):
       0.500  0.000  0.000
       0.000  0.500  0.000
       0.000  0.000  0.500
     ------------------------ ATOM  111 ------------------------
     Tr[ns(111)] =   3.00000
     eigenvalues:
       0.500  0.500  0.500
     eigenvectors (columns):
       1.000  0.000  0.000
       0.000  1.000  0.000
       0.000  0.000  1.000
     occupation matrix ns (before diag.):
       0.500  0.000  0.000
       0.000  0.500  0.000
       0.000  0.000  0.500
     ------------------------ ATOM  112 ------------------------
     Tr[ns(112)] =   3.00000
     eigenvalues:
       0.500  0.500  0.500
     eigenvectors (columns):
       1.000  0.000  0.000
       0.000  1.000  0.000
       0.000  0.000  1.000
     occupation matrix ns (before diag.):
       0.500  0.000  0.000
       0.000  0.500  0.000
       0.000  0.000  0.500
     ------------------------ ATOM  113 ------------------------
     Tr[ns(113)] =   1.00000
     eigenvalues:
       0.167  0.167  0.167
     eigenvectors (columns):
       1.000  0.000  0.000
       0.000  1.000  0.000
       0.000  0.000  1.000
     occupation matrix ns (before diag.):
       0.167  0.000  0.000
       0.000  0.167  0.000
       0.000  0.000  0.167
     ------------------------ ATOM  114 ------------------------
     Tr[ns(114)] =   1.00000
     eigenvalues:
       0.167  0.167  0.167
     eigenvectors (columns):
       1.000  0.000  0.000
       0.000  1.000  0.000
       0.000  0.000  1.000
     occupation matrix ns (before diag.):
       0.167  0.000  0.000
       0.000  0.167  0.000
       0.000  0.000  0.167
     ------------------------ ATOM  115 ------------------------
     Tr[ns(115)] =   1.00000
     eigenvalues:
       0.167  0.167  0.167
     eigenvectors (columns):
       1.000  0.000  0.000
       0.000  1.000  0.000
       0.000  0.000  1.000
     occupation matrix ns (before diag.):
       0.167  0.000  0.000
       0.000  0.167  0.000
       0.000  0.000  0.167
     ------------------------ ATOM  116 ------------------------
     Tr[ns(116)] =   1.00000
     eigenvalues:
       0.167  0.167  0.167
     eigenvectors (columns):
       1.000  0.000  0.000
       0.000  1.000  0.000
       0.000  0.000  1.000
     occupation matrix ns (before diag.):
       0.167  0.000  0.000
       0.000  0.167  0.000
       0.000  0.000  0.167
     ------------------------ ATOM  117 ------------------------
     Tr[ns(117)] =   3.00000
     eigenvalues:
       0.500  0.500  0.500
     eigenvectors (columns):
       1.000  0.000  0.000
       0.000  1.000  0.000
       0.000  0.000  1.000
     occupation matrix ns (before diag.):
       0.500  0.000  0.000
       0.000  0.500  0.000
       0.000  0.000  0.500
     ------------------------ ATOM  118 ------------------------
     Tr[ns(118)] =   3.00000
     eigenvalues:
       0.500  0.500  0.500
     eigenvectors (columns):
       1.000  0.000  0.000
       0.000  1.000  0.000
       0.000  0.000  1.000
     occupation matrix ns (before diag.):
       0.500  0.000  0.000
       0.000  0.500  0.000
       0.000  0.000  0.500
     ------------------------ ATOM  119 ------------------------
     Tr[ns(119)] =   3.00000
     eigenvalues:
       0.500  0.500  0.500
     eigenvectors (columns):
       1.000  0.000  0.000
       0.000  1.000  0.000
       0.000  0.000  1.000
     occupation matrix ns (before diag.):
       0.500  0.000  0.000
       0.000  0.500  0.000
       0.000  0.000  0.500
     ------------------------ ATOM  120 ------------------------
     Tr[ns(120)] =   3.00000
     eigenvalues:
       0.500  0.500  0.500
     eigenvectors (columns):
       1.000  0.000  0.000
       0.000  1.000  0.000
       0.000  0.000  1.000
     occupation matrix ns (before diag.):
       0.500  0.000  0.000
       0.000  0.500  0.000
       0.000  0.000  0.500
     ------------------------ ATOM  121 ------------------------
     Tr[ns(121)] =   1.00000
     eigenvalues:
       0.167  0.167  0.167
     eigenvectors (columns):
       1.000  0.000  0.000
       0.000  1.000  0.000
       0.000  0.000  1.000
     occupation matrix ns (before diag.):
       0.167  0.000  0.000
       0.000  0.167  0.000
       0.000  0.000  0.167
     ------------------------ ATOM  122 ------------------------
     Tr[ns(122)] =   1.00000
     eigenvalues:
       0.167  0.167  0.167
     eigenvectors (columns):
       1.000  0.000  0.000
       0.000  1.000  0.000
       0.000  0.000  1.000
     occupation matrix ns (before diag.):
       0.167  0.000  0.000
       0.000  0.167  0.000
       0.000  0.000  0.167
     ------------------------ ATOM  123 ------------------------
     Tr[ns(123)] =   1.00000
     eigenvalues:
       0.167  0.167  0.167
     eigenvectors (columns):
       1.000  0.000  0.000
       0.000  1.000  0.000
       0.000  0.000  1.000
     occupation matrix ns (before diag.):
       0.167  0.000  0.000
       0.000  0.167  0.000
       0.000  0.000  0.167
     ------------------------ ATOM  124 ------------------------
     Tr[ns(124)] =   1.00000
     eigenvalues:
       0.167  0.167  0.167
     eigenvectors (columns):
       1.000  0.000  0.000
       0.000  1.000  0.000
       0.000  0.000  1.000
     occupation matrix ns (before diag.):
       0.167  0.000  0.000
       0.000  0.167  0.000
       0.000  0.000  0.167
     ------------------------ ATOM  125 ------------------------
     Tr[ns(125)] =   3.00000
     eigenvalues:
       0.500  0.500  0.500
     eigenvectors (columns):
       1.000  0.000  0.000
       0.000  1.000  0.000
       0.000  0.000  1.000
     occupation matrix ns (before diag.):
       0.500  0.000  0.000
       0.000  0.500  0.000
       0.000  0.000  0.500
     ------------------------ ATOM  126 ------------------------
     Tr[ns(126)] =   3.00000
     eigenvalues:
       0.500  0.500  0.500
     eigenvectors (columns):
       1.000  0.000  0.000
       0.000  1.000  0.000
       0.000  0.000  1.000
     occupation matrix ns (before diag.):
       0.500  0.000  0.000
       0.000  0.500  0.000
       0.000  0.000  0.500
     ------------------------ ATOM  127 ------------------------
     Tr[ns(127)] =   3.00000
     eigenvalues:
       0.500  0.500  0.500
     eigenvectors (columns):
       1.000  0.000  0.000
       0.000  1.000  0.000
       0.000  0.000  1.000
     occupation matrix ns (before diag.):
       0.500  0.000  0.000
       0.000  0.500  0.000
       0.000  0.000  0.500
     ------------------------ ATOM  128 ------------------------
     Tr[ns(128)] =   3.00000
     eigenvalues:
       0.500  0.500  0.500
     eigenvectors (columns):
       1.000  0.000  0.000
       0.000  1.000  0.000
       0.000  0.000  1.000
     occupation matrix ns (before diag.):
       0.500  0.000  0.000
       0.000  0.500  0.000
       0.000  0.000  0.500
     ------------------------ ATOM  129 ------------------------
     Tr[ns(129)] =   1.00000
     eigenvalues:
       0.167  0.167  0.167
     eigenvectors (columns):
       1.000  0.000  0.000
       0.000  1.000  0.000
       0.000  0.000  1.000
     occupation matrix ns (before diag.):
       0.167  0.000  0.000
       0.000  0.167  0.000
       0.000  0.000  0.167
     ------------------------ ATOM  130 ------------------------
     Tr[ns(130)] =   1.00000
     eigenvalues:
       0.167  0.167  0.167
     eigenvectors (columns):
       1.000  0.000  0.000
       0.000  1.000  0.000
       0.000  0.000  1.000
     occupation matrix ns (before diag.):
       0.167  0.000  0.000
       0.000  0.167  0.000
       0.000  0.000  0.167
     ------------------------ ATOM  131 ------------------------
     Tr[ns(131)] =   1.00000
     eigenvalues:
       0.167  0.167  0.167
     eigenvectors (columns):
       1.000  0.000  0.000
       0.000  1.000  0.000
       0.000  0.000  1.000
     occupation matrix ns (before diag.):
       0.167  0.000  0.000
       0.000  0.167  0.000
       0.000  0.000  0.167
     ------------------------ ATOM  132 ------------------------
     Tr[ns(132)] =   1.00000
     eigenvalues:
       0.167  0.167  0.167
     eigenvectors (columns):
       1.000  0.000  0.000
       0.000  1.000  0.000
       0.000  0.000  1.000
     occupation matrix ns (before diag.):
       0.167  0.000  0.000
       0.000  0.167  0.000
       0.000  0.000  0.167
     ------------------------ ATOM  133 ------------------------
     Tr[ns(133)] =   3.00000
     eigenvalues:
       0.500  0.500  0.500
     eigenvectors (columns):
       1.000  0.000  0.000
       0.000  1.000  0.000
       0.000  0.000  1.000
     occupation matrix ns (before diag.):
       0.500  0.000  0.000
       0.000  0.500  0.000
       0.000  0.000  0.500
     ------------------------ ATOM  134 ------------------------
     Tr[ns(134)] =   3.00000
     eigenvalues:
       0.500  0.500  0.500
     eigenvectors (columns):
       1.000  0.000  0.000
       0.000  1.000  0.000
       0.000  0.000  1.000
     occupation matrix ns (before diag.):
       0.500  0.000  0.000
       0.000  0.500  0.000
       0.000  0.000  0.500
     ------------------------ ATOM  135 ------------------------
     Tr[ns(135)] =   3.00000
     eigenvalues:
       0.500  0.500  0.500
     eigenvectors (columns):
       1.000  0.000  0.000
       0.000  1.000  0.000
       0.000  0.000  1.000
     occupation matrix ns (before diag.):
       0.500  0.000  0.000
       0.000  0.500  0.000
       0.000  0.000  0.500
     ------------------------ ATOM  136 ------------------------
     Tr[ns(136)] =   3.00000
     eigenvalues:
       0.500  0.500  0.500
     eigenvectors (columns):
       1.000  0.000  0.000
       0.000  1.000  0.000
       0.000  0.000  1.000
     occupation matrix ns (before diag.):
       0.500  0.000  0.000
       0.000  0.500  0.000
       0.000  0.000  0.500
     ------------------------ ATOM  137 ------------------------
     Tr[ns(137)] =   1.00000
     eigenvalues:
       0.167  0.167  0.167
     eigenvectors (columns):
       1.000  0.000  0.000
       0.000  1.000  0.000
       0.000  0.000  1.000
     occupation matrix ns (before diag.):
       0.167  0.000  0.000
       0.000  0.167  0.000
       0.000  0.000  0.167
     ------------------------ ATOM  138 ------------------------
     Tr[ns(138)] =   1.00000
     eigenvalues:
       0.167  0.167  0.167
     eigenvectors (columns):
       1.000  0.000  0.000
       0.000  1.000  0.000
       0.000  0.000  1.000
     occupation matrix ns (before diag.):
       0.167  0.000  0.000
       0.000  0.167  0.000
       0.000  0.000  0.167
     ------------------------ ATOM  139 ------------------------
     Tr[ns(139)] =   1.00000
     eigenvalues:
       0.167  0.167  0.167
     eigenvectors (columns):
       1.000  0.000  0.000
       0.000  1.000  0.000
       0.000  0.000  1.000
     occupation matrix ns (before diag.):
       0.167  0.000  0.000
       0.000  0.167  0.000
       0.000  0.000  0.167
     ------------------------ ATOM  140 ------------------------
     Tr[ns(140)] =   1.00000
     eigenvalues:
       0.167  0.167  0.167
     eigenvectors (columns):
       1.000  0.000  0.000
       0.000  1.000  0.000
       0.000  0.000  1.000
     occupation matrix ns (before diag.):
       0.167  0.000  0.000
       0.000  0.167  0.000
       0.000  0.000  0.167
     ------------------------ ATOM  141 ------------------------
     Tr[ns(141)] =   3.00000
     eigenvalues:
       0.500  0.500  0.500
     eigenvectors (columns):
       1.000  0.000  0.000
       0.000  1.000  0.000
       0.000  0.000  1.000
     occupation matrix ns (before diag.):
       0.500  0.000  0.000
       0.000  0.500  0.000
       0.000  0.000  0.500
     ------------------------ ATOM  142 ------------------------
     Tr[ns(142)] =   3.00000
     eigenvalues:
       0.500  0.500  0.500
     eigenvectors (columns):
       1.000  0.000  0.000
       0.000  1.000  0.000
       0.000  0.000  1.000
     occupation matrix ns (before diag.):
       0.500  0.000  0.000
       0.000  0.500  0.000
       0.000  0.000  0.500
     ------------------------ ATOM  143 ------------------------
     Tr[ns(143)] =   3.00000
     eigenvalues:
       0.500  0.500  0.500
     eigenvectors (columns):
       1.000  0.000  0.000
       0.000  1.000  0.000
       0.000  0.000  1.000
     occupation matrix ns (before diag.):
       0.500  0.000  0.000
       0.000  0.500  0.000
       0.000  0.000  0.500
     ------------------------ ATOM  144 ------------------------
     Tr[ns(144)] =   3.00000
     eigenvalues:
       0.500  0.500  0.500
     eigenvectors (columns):
       1.000  0.000  0.000
       0.000  1.000  0.000
       0.000  0.000  1.000
     occupation matrix ns (before diag.):
       0.500  0.000  0.000
       0.000  0.500  0.000
       0.000  0.000  0.500
     ------------------------ ATOM  145 ------------------------
     Tr[ns(145)] =   1.00000
     eigenvalues:
       0.167  0.167  0.167
     eigenvectors (columns):
       1.000  0.000  0.000
       0.000  1.000  0.000
       0.000  0.000  1.000
     occupation matrix ns (before diag.):
       0.167  0.000  0.000
       0.000  0.167  0.000
       0.000  0.000  0.167
     ------------------------ ATOM  146 ------------------------
     Tr[ns(146)] =   1.00000
     eigenvalues:
       0.167  0.167  0.167
     eigenvectors (columns):
       1.000  0.000  0.000
       0.000  1.000  0.000
       0.000  0.000  1.000
     occupation matrix ns (before diag.):
       0.167  0.000  0.000
       0.000  0.167  0.000
       0.000  0.000  0.167
     ------------------------ ATOM  147 ------------------------
     Tr[ns(147)] =   1.00000
     eigenvalues:
       0.167  0.167  0.167
     eigenvectors (columns):
       1.000  0.000  0.000
       0.000  1.000  0.000
       0.000  0.000  1.000
     occupation matrix ns (before diag.):
       0.167  0.000  0.000
       0.000  0.167  0.000
       0.000  0.000  0.167
     ------------------------ ATOM  148 ------------------------
     Tr[ns(148)] =   1.00000
     eigenvalues:
       0.167  0.167  0.167
     eigenvectors (columns):
       1.000  0.000  0.000
       0.000  1.000  0.000
       0.000  0.000  1.000
     occupation matrix ns (before diag.):
       0.167  0.000  0.000
       0.000  0.167  0.000
       0.000  0.000  0.167
     ------------------------ ATOM  149 ------------------------
     Tr[ns(149)] =   3.00000
     eigenvalues:
       0.500  0.500  0.500
     eigenvectors (columns):
       1.000  0.000  0.000
       0.000  1.000  0.000
       0.000  0.000  1.000
     occupation matrix ns (before diag.):
       0.500  0.000  0.000
       0.000  0.500  0.000
       0.000  0.000  0.500
     ------------------------ ATOM  150 ------------------------
     Tr[ns(150)] =   3.00000
     eigenvalues:
       0.500  0.500  0.500
     eigenvectors (columns):
       1.000  0.000  0.000
       0.000  1.000  0.000
       0.000  0.000  1.000
     occupation matrix ns (before diag.):
       0.500  0.000  0.000
       0.000  0.500  0.000
       0.000  0.000  0.500
     ------------------------ ATOM  151 ------------------------
     Tr[ns(151)] =   3.00000
     eigenvalues:
       0.500  0.500  0.500
     eigenvectors (columns):
       1.000  0.000  0.000
       0.000  1.000  0.000
       0.000  0.000  1.000
     occupation matrix ns (before diag.):
       0.500  0.000  0.000
       0.000  0.500  0.000
       0.000  0.000  0.500
     ------------------------ ATOM  152 ------------------------
[...]
   -26.8835 -26.8835 -26.8832 -26.8831 -26.8829 -26.8828 -26.8821 -26.8821
   -26.8818 -26.8812 -26.8811 -26.8811 -26.8810 -26.8806 -26.8804 -26.8803
   -26.8799 -26.8798 -26.8797 -26.8796 -26.8794 -26.8793 -26.8792 -26.8792
   -26.8791 -26.8790 -26.8786 -26.8785 -26.8783 -26.8779 -26.8773 -26.8772
   -26.8770 -26.8766 -26.8764 -26.8760 -26.8760 -26.8756 -26.8752 -26.8745
   -26.8744 -26.8742 -26.8740 -26.8735 -26.8728 -26.8728 -26.8726 -26.8723
   -26.8708 -26.8705 -26.8696 -26.8691 -26.8683 -26.8681 -26.8680 -26.8680
   -26.8677 -26.8670 -26.8667 -26.8648 -26.8643 -26.8640 -26.8632 -26.8621
   -26.8613 -26.8607 -26.8606 -26.8560 -26.8510 -20.2379 -20.2359 -20.2324
   -20.2315 -20.2274 -20.2270 -20.2265 -20.2247 -20.2245 -20.2241 -20.2236
   -20.2224 -20.2218 -20.2215 -20.2215 -20.2214 -20.2213 -20.2209 -20.2205
   -20.2201 -20.2196 -20.2192 -20.2190 -20.2189 -20.2181 -20.2175 -20.2173
   -20.2171 -20.2167 -20.2164 -20.2163 -20.2160 -20.2159 -20.2158 -20.2155
   -20.2144 -20.2143 -20.2139 -20.2138 -20.2134 -20.2131 -20.2122 -20.2118
   -20.2118 -20.2115 -20.2109 -20.2099 -20.2093 -20.2093 -20.2092 -20.2090
   -20.2089 -20.2086 -20.2083 -20.2073 -20.2069 -20.2067 -20.2061 -20.2059
   -20.2059 -20.2058 -20.2055 -20.2054 -20.2050 -20.2041 -20.2040 -20.2040
   -20.2037 -20.2033 -20.2029 -20.2028 -20.2026 -20.2026 -20.2016 -20.2011
   -20.2010 -20.2005 -20.2005 -20.2004 -20.2003 -20.2000 -20.2000 -20.1992
   -20.1991 -20.1989 -20.1984 -20.1983 -20.1982 -20.1981 -20.1978 -20.1974
   -20.1972 -20.1968 -20.1968 -20.1964 -20.1958 -20.1957 -20.1953 -20.1949
   -20.1948 -20.1942 -20.1933 -20.1933 -20.1931 -20.1928 -20.1924 -20.1922
   -20.1917 -20.1909 -20.1902 -20.1901 -20.1894 -20.1891 -20.1888 -20.1874
   -20.1874 -20.1872 -20.1869 -20.1852 -20.1841 -20.1837 -20.1836 -20.1834
   -20.1820 -20.1819 -20.1804 -20.1787 -20.1778 -20.1775 -20.1769 -20.1757
   -20.1744 -20.1731 -20.1722 -20.1722  -7.1870  -7.1805  -7.1743  -7.1733
    -7.1718  -7.1711  -7.1686  -7.1675  -7.1669  -7.1662  -7.1655  -7.1651
    -7.1642  -7.1622  -7.1612  -7.1606  -7.1598  -7.1585  -7.1583  -7.1579
    -7.1575  -7.1570  -7.1563  -7.1552  -7.1542  -7.1537  -7.1534  -7.1532
    -7.1524  -7.1520  -7.1514  -7.1510  -7.1503  -7.1498  -7.1492  -7.1484
    -7.1482  -7.1479  -7.1467  -7.1459  -7.1451  -7.1444  -7.1439  -7.1429
    -7.1422  -7.1415  -7.1413  -7.1406  -7.1403  -7.1392  -7.1386  -7.1379
    -7.1368  -7.1361  -7.1351  -7.1338  -7.1337  -7.1332  -7.1326  -7.1321
    -7.1319  -7.1308  -7.1304  -7.1300  -7.1285  -7.1280  -7.1271  -7.1259
    -7.1247  -7.1241  -7.1234  -7.1216  -7.1202  -7.1172  -7.1158  -7.1147
    -7.1146  -7.1136  -7.1120  -7.1078  -7.1060  -7.1019  -7.1004  -7.0977
    -7.0956  -7.0954  -7.0925  -7.0922  -7.0919  -7.0903  -7.0896  -7.0883
    -7.0874  -7.0872  -7.0870  -7.0859  -7.0856  -7.0849  -7.0846  -7.0835
    -7.0828  -7.0819  -7.0815  -7.0814  -7.0807  -7.0802  -7.0789  -7.0784
    -7.0777  -7.0766  -7.0764  -7.0763  -7.0755  -7.0754  -7.0748  -7.0741
    -7.0734  -7.0731  -7.0726  -7.0723  -7.0722  -7.0709  -7.0708  -7.0704
    -7.0701  -7.0688  -7.0682  -7.0676  -7.0672  -7.0670  -7.0662  -7.0660
    -7.0650  -7.0647  -7.0644  -7.0636  -7.0632  -7.0623  -7.0619  -7.0617
    -7.0615  -7.0611  -7.0611  -7.0606  -7.0598  -7.0592  -7.0587  -7.0585
    -7.0582  -7.0574  -7.0571  -7.0569  -7.0565  -7.0561  -7.0553  -7.0550
    -7.0545  -7.0538  -7.0533  -7.0528  -7.0524  -7.0520  -7.0516  -7.0511
    -7.0506  -7.0503  -7.0499  -7.0496  -7.0487  -7.0483  -7.0479  -7.0476
    -7.0473  -7.0468  -7.0463  -7.0461  -7.0459  -7.0453  -7.0450  -7.0448
    -7.0444  -7.0441  -7.0440  -7.0436  -7.0434  -7.0429  -7.0422  -7.0419
    -7.0418  -7.0414  -7.0412  -7.0408  -7.0406  -7.0402  -7.0395  -7.0391
    -7.0388  -7.0383  -7.0382  -7.0379  -7.0378  -7.0372  -7.0369  -7.0364
    -7.0363  -7.0360  -7.0353  -7.0350  -7.0348  -7.0342  -7.0338  -7.0332
    -7.0327  -7.0325  -7.0323  -7.0319  -7.0312  -7.0310  -7.0307  -7.0305
    -7.0304  -7.0302  -7.0299  -7.0294  -7.0291  -7.0285  -7.0284  -7.0281
    -7.0273  -7.0272  -7.0270  -7.0267  -7.0263  -7.0258  -7.0250  -7.0249
    -7.0248  -7.0242  -7.0239  -7.0235  -7.0232  -7.0225  -7.0223  -7.0220
    -7.0218  -7.0211  -7.0210  -7.0207  -7.0206  -7.0203  -7.0201  -7.0194
    -7.0190  -7.0186  -7.0184  -7.0183  -7.0175  -7.0170  -7.0165  -7.0163
    -7.0161  -7.0158  -7.0156  -7.0154  -7.0152  -7.0150  -7.0146  -7.0138
    -7.0133  -7.0126  -7.0122  -7.0119  -7.0117  -7.0114  -7.0109  -7.0108
    -7.0100  -7.0095  -7.0092  -7.0086  -7.0084  -7.0076  -7.0075  -7.0071
    -7.0064  -7.0061  -7.0059  -7.0054  -7.0047  -7.0043  -7.0040  -7.0037
    -7.0036  -7.0024  -7.0020  -7.0016  -7.0015  -7.0010  -7.0008  -7.0003
    -6.9995  -6.9988  -6.9983  -6.9978  -6.9974  -6.9962  -6.9959  -6.9955
    -6.9953  -6.9949  -6.9942  -6.9935  -6.9933  -6.9930  -6.9927  -6.9916
    -6.9915  -6.9909  -6.9902  -6.9901  -6.9889  -6.9881  -6.9876  -6.9875
    -6.9865  -6.9863  -6.9859  -6.9855  -6.9849  -6.9846  -6.9841  -6.9837
    -6.9831  -6.9831  -6.9826  -6.9822  -6.9820  -6.9816  -6.9812  -6.9809
    -6.9807  -6.9802  -6.9799  -6.9794  -6.9788  -6.9786  -6.9784  -6.9779
    -6.9777  -6.9773  -6.9766  -6.9764  -6.9760  -6.9760  -6.9754  -6.9750
    -6.9748  -6.9744  -6.9741  -6.9740  -6.9738  -6.9736  -6.9730  -6.9727
    -6.9722  -6.9718  -6.9715  -6.9710  -6.9706  -6.9703  -6.9699  -6.9698
    -6.9692  -6.9691  -6.9689  -6.9686  -6.9684  -6.9683  -6.9675  -6.9674
    -6.9673  -6.9669  -6.9664  -6.9660  -6.9659  -6.9653  -6.9652  -6.9650
    -6.9645  -6.9644  -6.9642  -6.9640  -6.9638  -6.9634  -6.9631  -6.9627
    -6.9625  -6.9621  -6.9621  -6.9618  -6.9614  -6.9613  -6.9608  -6.9601
    -6.9597  -6.9594  -6.9593  -6.9588  -6.9587  -6.9583  -6.9580  -6.9578
    -6.9571  -6.9567  -6.9564  -6.9561  -6.9560  -6.9554  -6.9552  -6.9546
    -6.9543  -6.9539  -6.9537  -6.9536  -6.9530  -6.9526  -6.9523  -6.9520
    -6.9516  -6.9505  -6.9499  -6.9499  -6.9490  -6.9487  -6.9486  -6.9482
    -6.9480  -6.9476  -6.9472  -6.9470  -6.9467  -6.9463  -6.9459  -6.9454
    -6.9451  -6.9446  -6.9445  -6.9444  -6.9438  -6.9437  -6.9430  -6.9426
    -6.9422  -6.9421  -6.9419  -6.9417  -6.9413  -6.9412  -6.9408  -6.9405
    -6.9398  -6.9396  -6.9394  -6.9388  -6.9383  -6.9376  -6.9374  -6.9372
    -6.9368  -6.9362  -6.9360  -6.9358  -6.9348  -6.9343  -6.9340  -6.9334
    -6.9333  -6.9327  -6.9322  -6.9316  -6.9312  -6.9309  -6.9309  -6.9304
    -6.9298  -6.9294  -6.9290  -6.9289  -6.9286  -6.9279  -6.9274  -6.9268
    -6.9263  -6.9259  -6.9257  -6.9247  -6.9241  -6.9238  -6.9229  -6.9225
    -6.9224  -6.9221  -6.9218  -6.9214  -6.9201  -6.9193  -6.9188  -6.9186
    -6.9182  -6.9165  -6.9163  -6.9154  -6.9148  -6.9142  -6.9141  -6.9138
    -6.9127  -6.9114  -6.9107  -6.9083  -6.9077  -6.9075  -6.9070  -6.9069
    -6.9047  -6.9038  -6.9032  -6.9028  -6.9021  -6.9002  -6.8983  -6.8964
    -6.8961  -6.8921  -6.8917  -6.8877  -6.8763  -6.8735  -6.8732  -6.8722
    -3.6040  -3.6000  -3.5432  -3.4851  -3.3722  -3.3523  -3.3337  -3.3132
    -3.2648  -3.2615  -3.2105  -3.1896  -3.0913  -3.0722  -3.0692  -3.0234
    -3.0001  -2.9473  -2.9200  -2.8789  -2.8558  -2.8448  -2.8305  -2.8125
    -2.8034  -2.7808  -2.7632  -2.7512  -2.7441  -2.7055  -2.6919  -2.6647
    -2.6500  -2.6312  -2.5947  -2.5827  -2.5573  -2.5320  -2.5224  -2.5125
    -2.4960  -2.4760  -2.4698  -2.4304  -2.4081  -2.3975  -2.3901  -2.3799
    -2.3464  -2.3388  -2.3272  -2.3030  -2.2738  -2.2665  -2.2505  -2.2401
    -2.2234  -2.1994  -2.1936  -2.1853  -2.1624  -2.1622  -2.1318  -2.1126
    -2.1043  -2.0973  -2.0877  -2.0745  -2.0550  -2.0483  -2.0434  -2.0365
    -2.0267  -2.0146  -2.0122  -1.9891  -1.9834  -1.9700  -1.9515  -1.8942
    -1.8628  -1.6315  -1.5783  -1.5302  -1.4310  -1.4070  -1.3913  -1.3733
    -1.3570  -1.3180  -1.2854  -1.2560  -1.2381  -1.2128  -1.1883  -1.1524
    -1.1128  -1.0839  -1.0661  -1.0408  -1.0156  -0.9684  -0.9479  -0.9143
    -0.8332  -0.8023  -0.7860  -0.7188   0.6310   0.6354   0.6630   0.6880
     0.8176   0.8238   0.8276   0.8298   0.8430   0.8447   0.8520   0.8544
     0.9195   0.9209   0.9268   0.9379   0.9408   0.9431   0.9523   0.9536
     0.9599   0.9645   0.9673   0.9745   0.9773   0.9782   0.9855   0.9935
     0.9963   1.0003   1.0030   1.0084   1.0116   1.0173   1.0178   1.0225
     1.0244   1.0315   1.0343   1.0383   1.0425   1.0481   1.0582   1.0635
     1.0699   1.0778   1.0847   1.0954   1.1020   1.1092   1.1166   1.1207
     1.1308   1.1396   1.1526   1.1550   1.1704   1.1753   1.1903   1.2034
     1.6812   1.6949   1.7334   1.7509   1.7568   1.7794   1.7897   1.7925
     1.8253   1.8428   1.8503   1.9005   1.9258   1.9361   1.9411   1.9687
     1.9770   2.0064   2.0143   2.0270   2.0424   2.0867   2.0936   2.1079
     2.1276   2.1436   2.1594   2.1767   2.8893   2.9377   2.9571   2.9935
     3.0161   3.0502   3.0651   3.1010   3.4765   3.4887   3.5022   3.5080
     3.5194   3.5270   3.5563   3.5614   3.5731   3.5845   3.5894   3.5940
     3.6098   3.6408   3.6600   3.6790   3.7353   3.7499   3.7584   3.7610
     3.7662   3.7743   3.7826   3.7844   3.7870   3.7896   3.7988   3.8011
     3.8060   3.8163   3.8249   3.8380   3.8900   3.8986   3.9124   3.9272
     3.9824   3.9946   4.0119   4.0162   4.0206   4.0305   4.0348   4.0435
     4.0533   4.0637   4.0670   4.0811   4.0867   4.0882   4.1034   4.1069
     4.1135   4.1213   4.1272   4.1413   4.3966   4.4078   4.4317   4.4430
     4.4583   4.4726   4.4841   4.4991   4.5514   4.5653   4.5750   4.5836
     4.5874   4.5955   4.5966   4.6098   4.6167   4.6257   4.6323   4.6378
     4.6475   4.6518   4.6556   4.6599   4.6717   4.6807   4.6882   4.6983
     4.7076   4.7301   4.7353   4.7403   4.7462   4.7891   4.8203   4.8387
     4.8646   4.8742   4.8800   4.8871   4.8986   4.9105   4.9146   4.9208
     4.9394   4.9448   4.9575   4.9669   4.9740   4.9913   4.9942   5.0190
     5.0251   5.0302   5.0523   5.0609   5.0684   5.0746   5.0815   5.0873
     5.0958   5.0968   5.1010   5.1098   5.1189   5.1264   5.1292   5.1353
     5.1661   5.1756   5.1835   5.1931   5.2117   5.2189   5.2250   5.2432
     5.2525   5.2663   5.2686   5.2781   5.2785   5.3082   5.3148   5.3281
     5.3477   5.3528   5.3593   5.3789   5.3887   5.4024   5.4141   5.4296
     5.4419   5.4552   5.4684   5.4858   5.4960   5.5064   5.5125   5.5280
     5.5326   5.5517   5.5562   5.5686   5.5760   5.5945   5.5966   5.6238
     5.6354   5.6392   5.6718   5.6832   5.7580   5.7730   5.7864   5.7922
     5.8084   5.8176   5.8351   5.8696   5.8833   5.9070   5.9244   5.9388
     5.9604   5.9655   5.9730   5.9998   6.0016   6.0149   6.0191   6.0283
     6.0376   6.0492   6.0599   6.0839   6.0871   6.0984   6.1067   6.1257
     6.1275   6.1409   6.1537   6.1716   6.1785   6.1944   6.2067   6.2161
     6.2607   6.2747   6.2884   6.2986   6.3170   6.3369   6.3589   6.3638
     6.3872   6.4030   6.4199   6.4345   6.4417   6.4716   6.4994   6.5187
     6.5493   6.5965   6.6254   6.7320   6.9261   6.9749   7.0481   7.0973
     8.6870   8.7053   8.7595   8.7691   8.8393   8.8840   8.9068   8.9084
     8.9186   8.9221   8.9700   8.9945   9.1357   9.1558   9.1788   9.1958
     9.2123   9.2315   9.2810   9.2882   9.4155   9.4424   9.4763   9.4815
     9.5155   9.5260   9.5360   9.5426   9.5592   9.5914   9.5956   9.5974
     9.6204   9.6286   9.6350   9.6442   9.6533   9.6584   9.6649   9.6705
     9.6795   9.6912   9.6969   9.7048   9.7108   9.7163   9.7271   9.7318
     9.7415   9.7519   9.7557   9.7668   9.7862   9.8018   9.8169   9.8230
     9.9028   9.9139   9.9223   9.9380   9.9430   9.9443   9.9497   9.9601
     9.9636   9.9739   9.9806   9.9865   9.9936   9.9959   9.9982  10.0072
    10.0111  10.0159  10.0205  10.0227  10.0291  10.0355  10.0407  10.0488
    10.0539  10.0604  10.0630  10.0677  10.0775  10.0852  10.0937  10.0984
    10.1016  10.1062  10.1098  10.1303  10.1372  10.1395  10.1426  10.1532
    10.1586  10.1805  10.1834  10.2034  10.2128  10.2287  10.2418  10.2488
    10.2624  10.2757  10.2955  10.3169  10.5186  10.5307  10.5448  10.5515
    10.5658  10.5832  10.6013  10.6318  10.6401  10.6488  10.6803  10.7148
    10.8113  10.8385  10.8556  10.8836  10.8990  10.9137  10.9195  10.9237
    10.9508  10.9669  10.9778  10.9915  11.0058  11.0366  11.0566  11.0759
    11.2405  11.2503  11.2638  11.2849  11.2942  11.3066  11.3405  11.3474
    11.3603  11.3666  11.3703  11.4011  11.5110  11.5222  11.5266  11.5331
    11.5445  11.5627  11.5646  11.5786  11.5856  11.5960  11.6031  11.6092
    11.6170  11.6269  11.6315  11.6360  11.6400  11.6553  11.6590  11.6668
    11.6695  11.6800  11.6860  11.6885  11.7105  11.7144  11.7230  11.7247
    11.7305  11.7348  11.7477  11.7533  11.7652  11.7692  11.7729  11.7832
    11.7960  11.7993  11.8072  11.8146  11.8227  11.8321  11.8490  11.8564
    11.8591  11.8665  11.8797  11.8845  11.8996  11.9059  11.9324  11.9385
    11.9550  11.9846  11.9947  12.0051  12.0178  12.0244  12.0270  12.0362
    12.0670  12.0707  12.0925  12.0974  12.1457  12.1584  12.1653  12.1817
    12.1867  12.2164  12.2352  12.2447  12.2542  12.2794  12.2891  12.2932
    12.2968  12.3019  12.3066  12.3230  12.3634  12.3952  12.4007  12.4204
    12.4277  12.4446  12.4449  12.4570  12.4623  12.4685  12.4731  12.4841
    12.4924  12.5033  12.5093  12.5165  12.5206  12.5357  12.5455  12.5633
    12.5789  12.5813  12.5869  12.6146  12.6264  12.6365  12.6812  12.6855
    12.6913  12.7000  12.7055  12.7173  12.7243  12.7377  12.7435  12.7511
    12.7596  12.7645  12.7794  12.7834  12.7909  12.8025  12.8127  12.8283
    12.8649  12.8662  12.8727  12.8852  12.8929  12.9003  12.9092  12.9200
    12.9383  12.9432  12.9654  12.9738  12.9806  13.0069  13.0211  13.0501
    13.0595  13.0723  13.0853  13.0969  13.1065  13.1225  13.1273  13.1341
    13.1446  13.1543  13.1563  13.1681  13.1736  13.1777  13.1781  13.1914
    13.1935  13.2008  13.2035  13.2069  13.2165  13.2302  13.2333  13.2362
    13.2447  13.2481  13.2591  13.2643  13.2721  13.2801  13.2826  13.2958
    13.3013  13.3122  13.3207  13.3239  13.3283  13.3285  13.3431  13.3541
    13.3602  13.3768  13.3785  13.3878  13.3962  13.3998  13.4107  13.4298
    13.4319  13.4419  13.4457  13.4645  13.4820  13.5005  13.5079  13.5200
    13.5464  13.5830  13.5960  13.6178  13.6214  13.6606  13.6716  13.7018
    14.0589  14.0856  14.0967  14.1136  14.1177  14.1385  14.1435  14.1532
    14.1590  14.1675  14.1793  14.1886  14.2006  14.2068  14.2174  14.2211
    14.2404  14.2466  14.2582  14.2617  14.2770  14.2933  14.2991  14.3185
    14.3266  14.3342  14.3376  14.3536  14.3657  14.3921  14.3981  14.4181
    14.4749  14.4999  14.5155  14.5381  14.5599  14.5680  14.5794  14.5970
    14.6000  14.6149  14.6230  14.6503  14.6586  14.6734  14.6810  14.6935
    14.7542  14.7673  14.7703  14.7768  14.7944  14.8045  14.8102  14.8203
    14.8223  14.8271  14.8306  14.8442  14.8555  14.8641  14.8791  14.8984
    14.9154  14.9343  14.9617  14.9741  15.0276  15.0644  15.0888  15.0948
    15.1185  15.1282  15.1548  15.1569  15.1654  15.1749  15.1798  15.1935
    15.2699  15.2777  15.2964  15.3040  15.4122  15.4744  15.4789  15.4939
    15.4990  15.5110  15.5191  15.5308  15.5384  15.5503  15.5601  15.5770
    15.5955  15.6036  15.6148  15.6254  15.6294  15.6336  15.6443  15.6538
    15.6608  15.6673  15.6705  15.6753  15.6801  15.6846  15.6908  15.7006
    15.7092  15.7141  15.7227  15.7323  15.7353  15.7417  15.7495  15.7576
    15.7639  15.7671  15.7756  15.7830  15.7972  15.8109  15.8120  15.8165
    15.8251  15.8378  15.8440  15.8479  15.8608  15.8632  15.8675  15.8845
    15.8900  15.9057  15.9117  15.9203  15.9326  15.9408  15.9507  15.9540
    15.9653  15.9699  15.9877  15.9939  16.0078  16.0260  16.0393  16.0474
    16.0552  16.0583  16.0703  16.0760  16.0921  16.1184  16.1429  16.1532
    16.1591  16.1662  16.1694  16.1852  16.1916  16.1990  16.2080  16.2237
    16.2304  16.2451  16.2529  16.2635  16.2673  16.2735  16.2811  16.2894
    16.2987  16.3164  16.3170  16.3267  16.3339  16.3376  16.3547  16.3690
    16.3787  16.3922  16.4002  16.4267  16.4458  16.4624  16.4680  16.4879
    16.5010  16.5291  16.5385  16.5478  16.5727  16.5821  16.5931  16.6009
    16.6182  16.6258  16.6351  16.6405  16.6494  16.6592  16.6644  16.6707
    16.6799  16.6896  16.6933  16.7103  16.7249  16.7381  16.7410  16.7497
    16.7622  16.7667  16.7748  16.7810  16.7845  16.7946  16.8059  16.8201
    16.8377  16.8498  16.8594  16.8712  17.0145  17.0291  17.0500  17.0688
    17.0820  17.0883  17.0995  17.1140  17.1186  17.1245  17.1316  17.1448
    17.1507  17.1530  17.1613  17.1689  17.1735  17.1777  17.1834  17.1849
    17.1912  17.2011  17.2052  17.2115  17.2196  17.2290  17.2331  17.2418
    17.4830  17.4849  17.4953  17.5215  17.5586  17.5608  17.5704  17.5809
    17.6616  17.6836  17.7023  17.7284  17.7569  17.7640  17.7705  17.7836
    17.7885  17.8049  17.8251  17.8391  17.8462  17.8533  17.8684  17.8805
    17.8868  17.8881  17.8976  17.9061  17.9113  17.9257  17.9286  17.9405
    17.9546  17.9591  17.9702  17.9706  17.9747  17.9822  17.9838  17.9942

     highest occupied, lowest unoccupied level (ev):     7.1495    7.3955

!    total energy              =  -36448.27228885 Ry
     estimated scf accuracy    <       0.00000417 Ry

     The total energy is the sum of the following terms:
     one-electron contribution =  -18589.37246240 Ry
     hartree contribution      =   11043.89951829 Ry
     xc contribution           =   -9410.60384702 Ry
     ewald contribution        =  -19494.39768315 Ry
     Hubbard energy            =       2.20218543 Ry

     convergence has been achieved in  12 iterations

     Writing all to output data dir ./tmp_In1.0Ga0.0As0.75Sb0.25_cube_3x3x3.4/In1.0Ga0.0As0.75Sb0.25_cube_3x3x3.4.save/ :
     XML data file, charge density, pseudopotentials, collected wavefunctions

     init_run     :    263.51s CPU    266.30s WALL (       1 calls)
     electrons    :  10146.41s CPU  10170.25s WALL (       1 calls)

     Called by init_run:
     wfcinit      :    253.21s CPU    255.67s WALL (       1 calls)
     potinit      :      2.11s CPU      2.19s WALL (       1 calls)
     hinit0       :      0.66s CPU      0.69s WALL (       1 calls)

     Called by electrons:
     c_bands      :   9737.39s CPU   9759.68s WALL (      13 calls)
     sum_band     :    402.39s CPU    403.08s WALL (      13 calls)
     v_of_rho     :      4.61s CPU      4.88s WALL (      13 calls)
     mix_rho      :      0.96s CPU      0.98s WALL (      13 calls)

     Called by c_bands:
     init_us_2    :     37.36s CPU     37.93s WALL (      28 calls)
     cegterg      :   9431.75s CPU   9452.60s WALL (      13 calls)

     Called by *egterg:
     cdiaghg      :    898.49s CPU    899.36s WALL (     125 calls)
     h_psi        :   5750.21s CPU   5761.79s WALL (     127 calls)
     g_psi        :      4.70s CPU      4.70s WALL (     113 calls)

     Called by h_psi:
     h_psi:calbec :    892.18s CPU    892.27s WALL (     127 calls)
     vloc_psi     :   1127.23s CPU   1129.20s WALL (     127 calls)
     add_vuspsi   :    873.25s CPU    875.91s WALL (     127 calls)
     vhpsi        :   2847.96s CPU   2848.14s WALL (     127 calls)

     General routines
     calbec       :   1127.90s CPU   1128.02s WALL (     268 calls)
     fft          :      2.78s CPU      3.06s WALL (     131 calls)
     ffts         :      0.24s CPU      0.25s WALL (      13 calls)
     fftw         :   1180.53s CPU   1182.60s WALL (  162898 calls)

     Parallel routines

     Hubbard U routines
     new_ns       :     62.92s CPU     62.93s WALL (      13 calls)
     vhpsi        :   2847.96s CPU   2848.14s WALL (     127 calls)

     PWSCF        :      2h53m CPU      2h55m WALL


   This run was terminated on:  15:48:23   7Apr2026            

=------------------------------------------------------------------------------=
   JOB DONE.
=------------------------------------------------------------------------------=
