
     Program PWSCF v.7.3.1 starts on 13Jun2025 at 20:40:37 

     This program is part of the open-source Quantum ESPRESSO suite
     for quantum simulation of materials; please cite
         "P. Giannozzi et al., J. Phys.:Condens. Matter 21 395502 (2009);
         "P. Giannozzi et al., J. Phys.:Condens. Matter 29 465901 (2017);
         "P. Giannozzi et al., J. Chem. Phys. 152 154105 (2020);
          URL http://www.quantum-espresso.org", 
     in publications or presentations arising from this work. More details at
     http://www.quantum-espresso.org/quote

     Parallel version (MPI), running on   640 processors

     MPI processes distributed on     5 nodes
     480702 MiB available memory on the printing compute node when the environment starts

     Reading input from In0.0Ga1.0As0.25Sb0.75_cube_3x3x3.6.scf.in
Warning: card &CELL ignored
Warning: card   CELL_DOFREE = 'ALL', ignored
Warning: card / ignored

     Current dimensions of program PWSCF are:
     Max number of different atomic species (ntypx) = 10
     Max number of k-points (npk) =  40000
     Max angular momentum in pseudopotentials (lmaxx) =  4

     K-points division:     npool     =       8
     R & G space division:  proc/nbgrp/npool/nimage =      80
     Subspace diagonalization in iterative solution of the eigenvalue problem:
     one sub-group per band group will be used
     custom distributed-memory algorithm (size of sub-group:  8*  8 procs)


     Parallelization info
     --------------------
     sticks:   dense  smooth     PW     G-vecs:    dense   smooth      PW
     Min         553     553    142                87537    87537   11426
     Max         554     554    143                87545    87545   11431
     Sum       44245   44245  11417              7003361  7003361  914193

     Using Slab Decomposition



     bravais-lattice index     =            1
     lattice parameter (alat)  =      34.0396  a.u.
     unit-cell volume          =   39441.5333 (a.u.)^3
     number of atoms/cell      =          216
     number of atomic types    =            4
     number of electrons       =      3024.00
     number of Kohn-Sham states=         2160
     kinetic-energy cutoff     =     120.0000  Ry
     charge density cutoff     =     480.0000  Ry
     scf convergence threshold =      1.0E-05
     mixing beta               =       0.6500
     number of iterations used =            8  plain     mixing
     Exchange-correlation= PBE
                           (   1   4   3   4   0   0   0)
     Hubbard projectors: atomic
     Hubbard parameters of DFT+U (Dudarev formulation) in eV:
     U(As-4p) =  5.8400
     U(Ga-4p) = -2.3350
     U(In-5p) = -1.0575
     U(Sb-5p) =  4.8900

     Internal variables: lda_plus_u =T, lda_plus_u_kind = 0

     celldm(1)=  34.039612  celldm(2)=   0.000000  celldm(3)=   0.000000
     celldm(4)=   0.000000  celldm(5)=   0.000000  celldm(6)=   0.000000

     crystal axes: (cart. coord. in units of alat)
               a(1) = (   1.000000   0.000000   0.000000 )  
               a(2) = (   0.000000   1.000000   0.000000 )  
               a(3) = (   0.000000   0.000000   1.000000 )  

     reciprocal axes: (cart. coord. in units 2 pi/alat)
               b(1) = (  1.000000  0.000000  0.000000 )  
               b(2) = (  0.000000  1.000000  0.000000 )  
               b(3) = (  0.000000  0.000000  1.000000 )  


     PseudoPot. # 1 for As read from file:
     /work/i254/i254/gentles/data/pseudos/As.pbe.NC-SR.standard.v0.5.UPF
     MD5 check sum: bfe1a874457ce592347346129958e7cf
     Pseudo is Norm-conserving + core correction, Zval = 15.0
     Generated using ONCVPSP code by D. R. Hamann
     Using radial grid of 1358 points,  6 beta functions with: 
                l(1) =   0
                l(2) =   0
                l(3) =   1
                l(4) =   1
                l(5) =   2
                l(6) =   2

     PseudoPot. # 2 for Ga read from file:
     /work/i254/i254/gentles/data/pseudos/Ga.pbe.NC-SR.standard.v0.5.UPF
     MD5 check sum: 2bb81bf6f0a8d9832cf3329850435ecf
     Pseudo is Norm-conserving + core correction, Zval = 13.0
     Generated using ONCVPSP code by D. R. Hamann
     Using radial grid of 1902 points,  6 beta functions with: 
                l(1) =   0
                l(2) =   0
                l(3) =   1
                l(4) =   1
                l(5) =   2
                l(6) =   2

     PseudoPot. # 3 for In read from file:
     /work/i254/i254/gentles/data/pseudos/In.pbe.NC-SR.standard.v0.5.UPF
     MD5 check sum: 835f4bf908c982ff75c88e16816a8d7f
     Pseudo is Norm-conserving + core correction, Zval = 13.0
     Generated using ONCVPSP code by D. R. Hamann
     Using radial grid of 1964 points,  6 beta functions with: 
                l(1) =   0
                l(2) =   0
                l(3) =   1
                l(4) =   1
                l(5) =   2
                l(6) =   2

     PseudoPot. # 4 for Sb read from file:
     /work/i254/i254/gentles/data/pseudos/Sb.pbe.NC-SR.standard.v0.5.UPF
     MD5 check sum: 127f69b6101c45666faeae1b5d611565
     Pseudo is Norm-conserving + core correction, Zval = 15.0
     Generated using ONCVPSP code by D. R. Hamann
     Using radial grid of 1434 points,  6 beta functions with: 
                l(1) =   0
                l(2) =   0
                l(3) =   1
                l(4) =   1
                l(5) =   2
                l(6) =   2

     atomic species   valence    mass     pseudopotential
     As               15.00    74.92160     As( 1.00)
     Ga               13.00    69.72300     Ga( 1.00)
     In               13.00   114.81800     In( 1.00)
     Sb               15.00   121.76000     Sb( 1.00)

     No symmetry found



   Cartesian axes

     site n.     atom                  positions (alat units)
         1        Ga     tau(   1) = (   0.0059900  -0.0052450  -0.0076720  )
         2        Ga     tau(   2) = (   0.0017710   0.1641480   0.1659810  )
         3        Ga     tau(   3) = (   0.1619220  -0.0043720   0.1731530  )
         4        Ga     tau(   4) = (   0.1706260   0.1591590  -0.0060580  )
         5        Sb     tau(   5) = (   0.0853250   0.0789870   0.0811770  )
         6        Sb     tau(   6) = (   0.0862420   0.2507670   0.2503090  )
         7        Sb     tau(   7) = (   0.2481600   0.0822610   0.2545120  )
         8        Sb     tau(   8) = (   0.2472740   0.2505450   0.0799850  )
         9        Ga     tau(   9) = (   0.0061370  -0.0053350   0.3312440  )
        10        Ga     tau(  10) = (   0.0072830   0.1691770   0.5045480  )
        11        Ga     tau(  11) = (   0.1702280  -0.0063940   0.4953970  )
        12        Ga     tau(  12) = (   0.1725090   0.1728820   0.3404650  )
        13        Sb     tau(  13) = (   0.0865440   0.0828190   0.4168240  )
        14        As     tau(  14) = (   0.0853630   0.2511990   0.5825150  )
        15        Sb     tau(  15) = (   0.2486200   0.0835070   0.5817650  )
        16        As     tau(  16) = (   0.2485850   0.2523040   0.4235870  )
        17        Ga     tau(  17) = (  -0.0002400  -0.0057480   0.6711790  )
        18        Ga     tau(  18) = (  -0.0015660   0.1720010   0.8290990  )
        19        Ga     tau(  19) = (   0.1707510  -0.0055140   0.8352450  )
        20        Ga     tau(  20) = (   0.1616120   0.1698350   0.6617690  )
        21        Sb     tau(  21) = (   0.0850240   0.0822110   0.7515440  )
        22        Sb     tau(  22) = (   0.0854340   0.2514360   0.9177640  )
        23        As     tau(  23) = (   0.2482470   0.0780430   0.9141140  )
        24        Sb     tau(  24) = (   0.2501280   0.2516210   0.7473950  )
        25        Ga     tau(  25) = (   0.0062610   0.3391010   0.0065190  )
        26        Ga     tau(  26) = (   0.0124650   0.5011050   0.1671690  )
        27        Ga     tau(  27) = (   0.1630260   0.3388320   0.1619630  )
        28        Ga     tau(  28) = (   0.1692580   0.4940780  -0.0001060  )
        29        As     tau(  29) = (   0.0868190   0.4199200   0.0827860  )
        30        As     tau(  30) = (   0.0849340   0.5839560   0.2523630  )
        31        Sb     tau(  31) = (   0.2477680   0.4197850   0.2522070  )
        32        Sb     tau(  32) = (   0.2474940   0.5826050   0.0880480  )
        33        Ga     tau(  33) = (   0.0031230   0.3349380   0.3350080  )
        34        Ga     tau(  34) = (  -0.0022030   0.5073570   0.4974250  )
        35        Ga     tau(  35) = (   0.1698550   0.3318570   0.5059010  )
        36        Ga     tau(  36) = (   0.1664050   0.5098600   0.3357500  )
        37        Sb     tau(  37) = (   0.0865840   0.4200910   0.4199760  )
        38        Sb     tau(  38) = (   0.0867700   0.5872930   0.5817080  )
        39        As     tau(  39) = (   0.2505110   0.4148600   0.5812010  )
        40        As     tau(  40) = (   0.2491540   0.5859040   0.4162390  )
        41        Ga     tau(  41) = (   0.0037790   0.3257440   0.6652440  )
        42        Ga     tau(  42) = (   0.0022880   0.5010760   0.8302470  )
        43        Ga     tau(  43) = (   0.1725040   0.3379240   0.8372580  )
        44        Ga     tau(  44) = (   0.1707410   0.4948740   0.6593320  )
        45        Sb     tau(  45) = (   0.0865560   0.4145270   0.7478830  )
        46        Sb     tau(  46) = (   0.0862510   0.5826240   0.9165990  )
        47        As     tau(  47) = (   0.2501780   0.4188020   0.9161350  )
        48        Sb     tau(  48) = (   0.2491510   0.5837710   0.7459180  )
        49        Ga     tau(  49) = (   0.0027080   0.6675760   0.0008450  )
        50        Ga     tau(  50) = (   0.0058350   0.8371470   0.1740110  )
        51        Ga     tau(  51) = (   0.1655030   0.6678500   0.1765910  )
        52        Ga     tau(  52) = (   0.1620680   0.8371130  -0.0062900  )
        53        Sb     tau(  53) = (   0.0856150   0.7519200   0.0864020  )
        54        As     tau(  54) = (   0.0868790   0.9147520   0.2533440  )
        55        As     tau(  55) = (   0.2476370   0.7476320   0.2534470  )
        56        Sb     tau(  56) = (   0.2462100   0.9157230   0.0840720  )
        57        Ga     tau(  57) = (   0.0020170   0.6588020   0.3337870  )
        58        Ga     tau(  58) = (  -0.0015990   0.8267490   0.5034220  )
        59        Ga     tau(  59) = (   0.1771560   0.6686790   0.5006430  )
        60        Ga     tau(  60) = (   0.1696660   0.8345440   0.3309080  )
        61        Sb     tau(  61) = (   0.0868590   0.7475580   0.4160320  )
        62        Sb     tau(  62) = (   0.0855270   0.9123250   0.5845950  )
        63        As     tau(  63) = (   0.2499230   0.7512970   0.5859550  )
        64        As     tau(  64) = (   0.2469210   0.9119390   0.4161680  )
        65        Ga     tau(  65) = (   0.0037530   0.6769190   0.6648910  )
        66        Ga     tau(  66) = (   0.0078320   0.8373160   0.8269400  )
        67        Ga     tau(  67) = (   0.1607020   0.6695590   0.8259730  )
        68        Ga     tau(  68) = (   0.1704620   0.8289140   0.6697880  )
        69        As     tau(  69) = (   0.0845280   0.7536680   0.7471520  )
        70        As     tau(  70) = (   0.0854060   0.9160560   0.9111040  )
        71        Sb     tau(  71) = (   0.2472630   0.7517910   0.9105370  )
        72        As     tau(  72) = (   0.2474020   0.9132730   0.7501920  )
        73        Ga     tau(  73) = (   0.3275310   0.0013340  -0.0040230  )
        74        Ga     tau(  74) = (   0.3305770   0.1665600   0.1671460  )
        75        Ga     tau(  75) = (   0.4963630  -0.0015310   0.1645990  )
        76        Ga     tau(  76) = (   0.4986870   0.1693430  -0.0003270  )
        77        Sb     tau(  77) = (   0.4132240   0.0838590   0.0805380  )
        78        Sb     tau(  78) = (   0.4130120   0.2499940   0.2531300  )
        79        Sb     tau(  79) = (   0.5846620   0.0812730   0.2485830  )
        80        Sb     tau(  80) = (   0.5845740   0.2505270   0.0850600  )
        81        Ga     tau(  81) = (   0.3273550  -0.0056060   0.3407830  )
        82        Ga     tau(  82) = (   0.3320750   0.1754800   0.5024730  )
        83        Ga     tau(  83) = (   0.4982480  -0.0023870   0.5019110  )
        84        Ga     tau(  84) = (   0.4992410   0.1637320   0.3339510  )
        85        Sb     tau(  85) = (   0.4129900   0.0835890   0.4201440  )
        86        As     tau(  86) = (   0.4125680   0.2545350   0.5822850  )
        87        Sb     tau(  87) = (   0.5799030   0.0835190   0.5851350  )
        88        Sb     tau(  88) = (   0.5825170   0.2508710   0.4171780  )
        89        Ga     tau(  89) = (   0.3245620  -0.0048870   0.6710490  )
        90        Ga     tau(  90) = (   0.3258970   0.1609830   0.8358580  )
        91        Ga     tau(  91) = (   0.4987410   0.0003530   0.8321120  )
        92        Ga     tau(  92) = (   0.4900140   0.1717640   0.6611870  )
        93        Sb     tau(  93) = (   0.4117990   0.0826330   0.7488140  )
        94        Sb     tau(  94) = (   0.4113890   0.2512540   0.9146040  )
        95        Sb     tau(  95) = (   0.5822280   0.0839430   0.9166660  )
        96        Sb     tau(  96) = (   0.5787940   0.2501970   0.7474550  )
        97        Ga     tau(  97) = (   0.3274970   0.3389530  -0.0042500  )
        98        Ga     tau(  98) = (   0.3373760   0.5045470   0.1729640  )
        99        Ga     tau(  99) = (   0.4969520   0.3339710   0.1667210  )
       100        Ga     tau( 100) = (   0.4992310   0.5018690  -0.0009730  )
       101        Sb     tau( 101) = (   0.4138930   0.4191860   0.0828430  )
       102        As     tau( 102) = (   0.4126980   0.5853830   0.2532910  )
       103        Sb     tau( 103) = (   0.5811370   0.4182470   0.2504130  )
       104        Sb     tau( 104) = (   0.5811870   0.5859270   0.0848510  )
       105        Ga     tau( 105) = (   0.3248500   0.3304010   0.3399010  )
       106        Ga     tau( 106) = (   0.3216400   0.5008500   0.4985510  )
       107        Ga     tau( 107) = (   0.4942680   0.3318560   0.5033040  )
       108        Ga     tau( 108) = (   0.4929750   0.5047820   0.3305920  )
       109        Sb     tau( 109) = (   0.4113270   0.4184210   0.4180480  )
       110        Sb     tau( 110) = (   0.4095430   0.5827490   0.5843550  )
       111        Sb     tau( 111) = (   0.5785790   0.4179580   0.5861350  )
       112        Sb     tau( 112) = (   0.5817340   0.5851880   0.4148610  )
       113        Ga     tau( 113) = (   0.3352600   0.3381730   0.6618090  )
       114        Ga     tau( 114) = (   0.3302540   0.4945690   0.8313550  )
       115        Ga     tau( 115) = (   0.4909720   0.3367340   0.8261330  )
       116        Ga     tau( 116) = (   0.4904810   0.4981420   0.6726890  )
       117        As     tau( 117) = (   0.4101650   0.4164490   0.7482900  )
       118        Sb     tau( 118) = (   0.4140870   0.5839890   0.9129470  )
       119        Sb     tau( 119) = (   0.5796650   0.4159200   0.9133920  )
       120        Sb     tau( 120) = (   0.5800000   0.5855770   0.7502500  )
       121        Ga     tau( 121) = (   0.3279190   0.6657780  -0.0015160  )
       122        Ga     tau( 122) = (   0.3260660   0.8260800   0.1701050  )
       123        Ga     tau( 123) = (   0.4943190   0.6626220   0.1739530  )
       124        Ga     tau( 124) = (   0.5015450   0.8283250  -0.0032750  )
       125        Sb     tau( 125) = (   0.4146320   0.7469160   0.0842940  )
       126        Sb     tau( 126) = (   0.4115490   0.9146410   0.2513040  )
       127        Sb     tau( 127) = (   0.5842140   0.7495110   0.2529590  )
       128        Sb     tau( 128) = (   0.5838120   0.9144610   0.0827660  )
       129        Ga     tau( 129) = (   0.3275480   0.6631130   0.3314920  )
       130        Ga     tau( 130) = (   0.3216790   0.8317850   0.5004040  )
       131        Ga     tau( 131) = (   0.4961120   0.6649090   0.5005230  )
       132        Ga     tau( 132) = (   0.4971430   0.8319120   0.3352380  )
       133        Sb     tau( 133) = (   0.4093950   0.7482530   0.4173140  )
       134        Sb     tau( 134) = (   0.4098160   0.9137610   0.5838640  )
       135        Sb     tau( 135) = (   0.5819970   0.7497100   0.5823300  )
       136        Sb     tau( 136) = (   0.5853040   0.9140590   0.4172640  )
       137        Ga     tau( 137) = (   0.3330680   0.6756210   0.6665640  )
       138        Ga     tau( 138) = (   0.3325190   0.8337080   0.8236700  )
       139        Ga     tau( 139) = (   0.4960560   0.6755220   0.8314220  )
       140        Ga     tau( 140) = (   0.4936620   0.8291090   0.6687460  )
       141        As     tau( 141) = (   0.4142200   0.7518220   0.7486690  )
       142        Sb     tau( 142) = (   0.4142650   0.9147250   0.9145540  )
       143        As     tau( 143) = (   0.5788440   0.7501090   0.9143080  )
       144        Sb     tau( 144) = (   0.5815390   0.9137160   0.7501090  )
       145        Ga     tau( 145) = (   0.6676480   0.0012110   0.0003850  )
       146        Ga     tau( 146) = (   0.6718130   0.1713650   0.1720520  )
       147        Ga     tau( 147) = (   0.8310780  -0.0067240   0.1717780  )
       148        Ga     tau( 148) = (   0.8364160   0.1638230  -0.0000900  )
       149        Sb     tau( 149) = (   0.7517090   0.0829090   0.0875100  )
       150        As     tau( 150) = (   0.7511500   0.2509690   0.2519040  )
       151        Sb     tau( 151) = (   0.9173350   0.0802240   0.2509540  )
       152        Sb     tau( 152) = (   0.9180400   0.2518160   0.0854210  )
       153        Ga     tau( 153) = (   0.6706090  -0.0064830   0.3285730  )
       154        Ga     tau( 154) = (   0.6660880   0.1648520   0.5002300  )
       155        Ga     tau( 155) = (   0.8374520   0.0030780   0.4989210  )
       156        Ga     tau( 156) = (   0.8319950   0.1705230   0.3302620  )
       157        Sb     tau( 157) = (   0.7502280   0.0827950   0.4134260  )
       158        Sb     tau( 158) = (   0.7516000   0.2491870   0.5844100  )
       159        Sb     tau( 159) = (   0.9213770   0.0844180   0.5868520  )
       160        Sb     tau( 160) = (   0.9194090   0.2492880   0.4177810  )
       161        Ga     tau( 161) = (   0.6671710  -0.0022480   0.6659600  )
       162        Ga     tau( 162) = (   0.6660160   0.1656480   0.8315270  )
       163        Ga     tau( 163) = (   0.8391950  -0.0086450   0.8264520  )
       164        Ga     tau( 164) = (   0.8393520   0.1705160   0.6710480  )
       165        Sb     tau( 165) = (   0.7533060   0.0814210   0.7490010  )
       166        Sb     tau( 166) = (   0.7532050   0.2487990   0.9138840  )
       167        Sb     tau( 167) = (   0.9191170   0.0805790   0.9119120  )
       168        As     tau( 168) = (   0.9210210   0.2502200   0.7469470  )
       169        Ga     tau( 169) = (   0.6666380   0.3334160  -0.0026570  )
       170        Ga     tau( 170) = (   0.6672690   0.5024600   0.1682850  )
       171        Ga     tau( 171) = (   0.8306620   0.3309790   0.1731450  )
       172        Ga     tau( 172) = (   0.8348460   0.4989430   0.0009090  )
       173        Sb     tau( 173) = (   0.7498790   0.4157260   0.0851160  )
       174        Sb     tau( 174) = (   0.7528830   0.5859870   0.2536330  )
       175        Sb     tau( 175) = (   0.9207510   0.4200380   0.2507780  )
       176        Sb     tau( 176) = (   0.9214950   0.5816070   0.0846010  )
       177        Ga     tau( 177) = (   0.6701710   0.3312200   0.3298140  )
       178        Ga     tau( 178) = (   0.6637830   0.4993640   0.4985670  )
       179        Ga     tau( 179) = (   0.8347150   0.3339450   0.5002760  )
       180        Ga     tau( 180) = (   0.8409180   0.5070150   0.3388790  )
       181        Sb     tau( 181) = (   0.7520530   0.4178370   0.4150200  )
       182        Sb     tau( 182) = (   0.7531550   0.5850810   0.5775070  )
       183        Sb     tau( 183) = (   0.9210480   0.4165220   0.5834080  )
       184        As     tau( 184) = (   0.9193070   0.5876190   0.4179130  )
       185        Ga     tau( 185) = (   0.6661570   0.3340040   0.6664600  )
       186        Ga     tau( 186) = (   0.6665360   0.5012080   0.8336670  )
       187        Ga     tau( 187) = (   0.8415820   0.3288550   0.8275910  )
       188        Ga     tau( 188) = (   0.8359070   0.5016440   0.6646550  )
       189        Sb     tau( 189) = (   0.7528030   0.4170940   0.7499680  )
       190        Sb     tau( 190) = (   0.7490490   0.5859750   0.9192510  )
       191        Sb     tau( 191) = (   0.9201810   0.4157970   0.9154790  )
       192        Sb     tau( 192) = (   0.9202850   0.5878280   0.7469430  )
       193        Ga     tau( 193) = (   0.6586950   0.6730060  -0.0038800  )
       194        Ga     tau( 194) = (   0.6705220   0.8362300   0.1714060  )
       195        Ga     tau( 195) = (   0.8354290   0.6669690   0.1655830  )
       196        Ga     tau( 196) = (   0.8372230   0.8326790   0.0004050  )
       197        Sb     tau( 197) = (   0.7491210   0.7508160   0.0821610  )
       198        As     tau( 198) = (   0.7511320   0.9130320   0.2516370  )
       199        Sb     tau( 199) = (   0.9180460   0.7499660   0.2532890  )
       200        Sb     tau( 200) = (   0.9209720   0.9165990   0.0847890  )
       201        Ga     tau( 201) = (   0.6728160   0.6720530   0.3400850  )
       202        Ga     tau( 202) = (   0.6731610   0.8279330   0.4975380  )
       203        Ga     tau( 203) = (   0.8404890   0.6722090   0.4961980  )
       204        Ga     tau( 204) = (   0.8270370   0.8322980   0.3347070  )
       205        As     tau( 205) = (   0.7545820   0.7503100   0.4184240  )
       206        Sb     tau( 206) = (   0.7553100   0.9152350   0.5824060  )
       207        As     tau( 207) = (   0.9188420   0.7495750   0.5831590  )
       208        Sb     tau( 208) = (   0.9182320   0.9138030   0.4164940  )
       209        Ga     tau( 209) = (   0.6676340   0.6658780   0.6642940  )
       210        Ga     tau( 210) = (   0.6620610   0.8287110   0.8374630  )
       211        Ga     tau( 211) = (   0.8351510   0.6677170   0.8335590  )
       212        Ga     tau( 212) = (   0.8437810   0.8322800   0.6661540  )
       213        Sb     tau( 213) = (   0.7512890   0.7512670   0.7492570  )
       214        Sb     tau( 214) = (   0.7512960   0.9150170   0.9159240  )
       215        Sb     tau( 215) = (   0.9229900   0.7528990   0.9133980  )
       216        As     tau( 216) = (   0.9219220   0.9121850   0.7482760  )

     number of k points=     8
                       cart. coord. in units 2pi/alat
        k(    1) = (   0.0000000   0.0000000   0.0000000), wk =   0.2500000
        k(    2) = (   0.0000000   0.0000000  -0.5000000), wk =   0.2500000
        k(    3) = (   0.0000000  -0.5000000  -0.5000000), wk =   0.2500000
        k(    4) = (  -0.5000000  -0.5000000  -0.5000000), wk =   0.2500000
        k(    5) = (  -0.5000000   0.0000000   0.0000000), wk =   0.2500000
        k(    6) = (   0.0000000  -0.5000000   0.0000000), wk =   0.2500000
        k(    7) = (  -0.5000000   0.0000000   0.5000000), wk =   0.2500000
        k(    8) = (  -0.5000000   0.5000000   0.0000000), wk =   0.2500000

     Dense  grid:  7003361 G-vectors     FFT dimensions: ( 240, 240, 240)

     Estimated max dynamical RAM per process >       2.70 GB

     Estimated total dynamical RAM >    1716.93 GB

     Initial potential from superposition of free atoms

     starting charge    3023.6593, renormalised to    3024.0000

     STARTING HUBBARD OCCUPATIONS:

     =================== HUBBARD OCCUPATIONS ===================
     ------------------------ ATOM    1 ------------------------
     Tr[ns(  1)] =   1.00000
     eigenvalues:
       0.167  0.167  0.167
     eigenvectors (columns):
       1.000  0.000  0.000
       0.000  1.000  0.000
       0.000  0.000  1.000
     occupation matrix ns (before diag.):
       0.167  0.000  0.000
       0.000  0.167  0.000
       0.000  0.000  0.167
     ------------------------ ATOM    2 ------------------------
     Tr[ns(  2)] =   1.00000
     eigenvalues:
       0.167  0.167  0.167
     eigenvectors (columns):
       1.000  0.000  0.000
       0.000  1.000  0.000
       0.000  0.000  1.000
     occupation matrix ns (before diag.):
       0.167  0.000  0.000
       0.000  0.167  0.000
       0.000  0.000  0.167
     ------------------------ ATOM    3 ------------------------
     Tr[ns(  3)] =   1.00000
     eigenvalues:
       0.167  0.167  0.167
     eigenvectors (columns):
       1.000  0.000  0.000
       0.000  1.000  0.000
       0.000  0.000  1.000
     occupation matrix ns (before diag.):
       0.167  0.000  0.000
       0.000  0.167  0.000
       0.000  0.000  0.167
     ------------------------ ATOM    4 ------------------------
     Tr[ns(  4)] =   1.00000
     eigenvalues:
       0.167  0.167  0.167
     eigenvectors (columns):
       1.000  0.000  0.000
       0.000  1.000  0.000
       0.000  0.000  1.000
     occupation matrix ns (before diag.):
       0.167  0.000  0.000
       0.000  0.167  0.000
       0.000  0.000  0.167
     ------------------------ ATOM    5 ------------------------
     Tr[ns(  5)] =   3.00000
     eigenvalues:
       0.500  0.500  0.500
     eigenvectors (columns):
       1.000  0.000  0.000
       0.000  1.000  0.000
       0.000  0.000  1.000
     occupation matrix ns (before diag.):
       0.500  0.000  0.000
       0.000  0.500  0.000
       0.000  0.000  0.500
     ------------------------ ATOM    6 ------------------------
     Tr[ns(  6)] =   3.00000
     eigenvalues:
       0.500  0.500  0.500
     eigenvectors (columns):
       1.000  0.000  0.000
       0.000  1.000  0.000
       0.000  0.000  1.000
     occupation matrix ns (before diag.):
       0.500  0.000  0.000
       0.000  0.500  0.000
       0.000  0.000  0.500
     ------------------------ ATOM    7 ------------------------
     Tr[ns(  7)] =   3.00000
     eigenvalues:
       0.500  0.500  0.500
     eigenvectors (columns):
       1.000  0.000  0.000
       0.000  1.000  0.000
       0.000  0.000  1.000
     occupation matrix ns (before diag.):
       0.500  0.000  0.000
       0.000  0.500  0.000
       0.000  0.000  0.500
     ------------------------ ATOM    8 ------------------------
     Tr[ns(  8)] =   3.00000
     eigenvalues:
       0.500  0.500  0.500
     eigenvectors (columns):
       1.000  0.000  0.000
       0.000  1.000  0.000
       0.000  0.000  1.000
     occupation matrix ns (before diag.):
       0.500  0.000  0.000
       0.000  0.500  0.000
       0.000  0.000  0.500
     ------------------------ ATOM    9 ------------------------
     Tr[ns(  9)] =   1.00000
     eigenvalues:
       0.167  0.167  0.167
     eigenvectors (columns):
       1.000  0.000  0.000
       0.000  1.000  0.000
       0.000  0.000  1.000
     occupation matrix ns (before diag.):
       0.167  0.000  0.000
       0.000  0.167  0.000
       0.000  0.000  0.167
     ------------------------ ATOM   10 ------------------------
     Tr[ns( 10)] =   1.00000
     eigenvalues:
       0.167  0.167  0.167
     eigenvectors (columns):
       1.000  0.000  0.000
       0.000  1.000  0.000
       0.000  0.000  1.000
     occupation matrix ns (before diag.):
       0.167  0.000  0.000
       0.000  0.167  0.000
       0.000  0.000  0.167
     ------------------------ ATOM   11 ------------------------
     Tr[ns( 11)] =   1.00000
     eigenvalues:
       0.167  0.167  0.167
     eigenvectors (columns):
       1.000  0.000  0.000
       0.000  1.000  0.000
       0.000  0.000  1.000
     occupation matrix ns (before diag.):
       0.167  0.000  0.000
       0.000  0.167  0.000
       0.000  0.000  0.167
     ------------------------ ATOM   12 ------------------------
     Tr[ns( 12)] =   1.00000
     eigenvalues:
       0.167  0.167  0.167
     eigenvectors (columns):
       1.000  0.000  0.000
       0.000  1.000  0.000
       0.000  0.000  1.000
     occupation matrix ns (before diag.):
       0.167  0.000  0.000
       0.000  0.167  0.000
       0.000  0.000  0.167
     ------------------------ ATOM   13 ------------------------
     Tr[ns( 13)] =   3.00000
     eigenvalues:
       0.500  0.500  0.500
     eigenvectors (columns):
       1.000  0.000  0.000
       0.000  1.000  0.000
       0.000  0.000  1.000
     occupation matrix ns (before diag.):
       0.500  0.000  0.000
       0.000  0.500  0.000
       0.000  0.000  0.500
     ------------------------ ATOM   14 ------------------------
     Tr[ns( 14)] =   3.00000
     eigenvalues:
       0.500  0.500  0.500
     eigenvectors (columns):
       1.000  0.000  0.000
       0.000  1.000  0.000
       0.000  0.000  1.000
     occupation matrix ns (before diag.):
       0.500  0.000  0.000
       0.000  0.500  0.000
       0.000  0.000  0.500
     ------------------------ ATOM   15 ------------------------
     Tr[ns( 15)] =   3.00000
     eigenvalues:
       0.500  0.500  0.500
     eigenvectors (columns):
       1.000  0.000  0.000
       0.000  1.000  0.000
       0.000  0.000  1.000
     occupation matrix ns (before diag.):
       0.500  0.000  0.000
       0.000  0.500  0.000
       0.000  0.000  0.500
     ------------------------ ATOM   16 ------------------------
     Tr[ns( 16)] =   3.00000
     eigenvalues:
       0.500  0.500  0.500
     eigenvectors (columns):
       1.000  0.000  0.000
       0.000  1.000  0.000
       0.000  0.000  1.000
     occupation matrix ns (before diag.):
       0.500  0.000  0.000
       0.000  0.500  0.000
       0.000  0.000  0.500
     ------------------------ ATOM   17 ------------------------
     Tr[ns( 17)] =   1.00000
     eigenvalues:
       0.167  0.167  0.167
     eigenvectors (columns):
       1.000  0.000  0.000
       0.000  1.000  0.000
       0.000  0.000  1.000
     occupation matrix ns (before diag.):
       0.167  0.000  0.000
       0.000  0.167  0.000
       0.000  0.000  0.167
     ------------------------ ATOM   18 ------------------------
     Tr[ns( 18)] =   1.00000
     eigenvalues:
       0.167  0.167  0.167
     eigenvectors (columns):
       1.000  0.000  0.000
       0.000  1.000  0.000
       0.000  0.000  1.000
     occupation matrix ns (before diag.):
       0.167  0.000  0.000
       0.000  0.167  0.000
       0.000  0.000  0.167
     ------------------------ ATOM   19 ------------------------
     Tr[ns( 19)] =   1.00000
     eigenvalues:
       0.167  0.167  0.167
     eigenvectors (columns):
       1.000  0.000  0.000
       0.000  1.000  0.000
       0.000  0.000  1.000
     occupation matrix ns (before diag.):
       0.167  0.000  0.000
       0.000  0.167  0.000
       0.000  0.000  0.167
     ------------------------ ATOM   20 ------------------------
     Tr[ns( 20)] =   1.00000
     eigenvalues:
       0.167  0.167  0.167
     eigenvectors (columns):
       1.000  0.000  0.000
       0.000  1.000  0.000
       0.000  0.000  1.000
     occupation matrix ns (before diag.):
       0.167  0.000  0.000
       0.000  0.167  0.000
       0.000  0.000  0.167
     ------------------------ ATOM   21 ------------------------
     Tr[ns( 21)] =   3.00000
     eigenvalues:
       0.500  0.500  0.500
     eigenvectors (columns):
       1.000  0.000  0.000
       0.000  1.000  0.000
       0.000  0.000  1.000
     occupation matrix ns (before diag.):
       0.500  0.000  0.000
       0.000  0.500  0.000
       0.000  0.000  0.500
     ------------------------ ATOM   22 ------------------------
     Tr[ns( 22)] =   3.00000
     eigenvalues:
       0.500  0.500  0.500
     eigenvectors (columns):
       1.000  0.000  0.000
       0.000  1.000  0.000
       0.000  0.000  1.000
     occupation matrix ns (before diag.):
       0.500  0.000  0.000
       0.000  0.500  0.000
       0.000  0.000  0.500
     ------------------------ ATOM   23 ------------------------
     Tr[ns( 23)] =   3.00000
     eigenvalues:
       0.500  0.500  0.500
     eigenvectors (columns):
       1.000  0.000  0.000
       0.000  1.000  0.000
       0.000  0.000  1.000
     occupation matrix ns (before diag.):
       0.500  0.000  0.000
       0.000  0.500  0.000
       0.000  0.000  0.500
     ------------------------ ATOM   24 ------------------------
     Tr[ns( 24)] =   3.00000
     eigenvalues:
       0.500  0.500  0.500
     eigenvectors (columns):
       1.000  0.000  0.000
       0.000  1.000  0.000
       0.000  0.000  1.000
     occupation matrix ns (before diag.):
       0.500  0.000  0.000
       0.000  0.500  0.000
       0.000  0.000  0.500
     ------------------------ ATOM   25 ------------------------
     Tr[ns( 25)] =   1.00000
     eigenvalues:
       0.167  0.167  0.167
     eigenvectors (columns):
       1.000  0.000  0.000
       0.000  1.000  0.000
       0.000  0.000  1.000
     occupation matrix ns (before diag.):
       0.167  0.000  0.000
       0.000  0.167  0.000
       0.000  0.000  0.167
     ------------------------ ATOM   26 ------------------------
     Tr[ns( 26)] =   1.00000
     eigenvalues:
       0.167  0.167  0.167
     eigenvectors (columns):
       1.000  0.000  0.000
       0.000  1.000  0.000
       0.000  0.000  1.000
     occupation matrix ns (before diag.):
       0.167  0.000  0.000
       0.000  0.167  0.000
       0.000  0.000  0.167
     ------------------------ ATOM   27 ------------------------
     Tr[ns( 27)] =   1.00000
     eigenvalues:
       0.167  0.167  0.167
     eigenvectors (columns):
       1.000  0.000  0.000
       0.000  1.000  0.000
       0.000  0.000  1.000
     occupation matrix ns (before diag.):
       0.167  0.000  0.000
       0.000  0.167  0.000
       0.000  0.000  0.167
     ------------------------ ATOM   28 ------------------------
     Tr[ns( 28)] =   1.00000
     eigenvalues:
       0.167  0.167  0.167
     eigenvectors (columns):
       1.000  0.000  0.000
       0.000  1.000  0.000
       0.000  0.000  1.000
     occupation matrix ns (before diag.):
       0.167  0.000  0.000
       0.000  0.167  0.000
       0.000  0.000  0.167
     ------------------------ ATOM   29 ------------------------
     Tr[ns( 29)] =   3.00000
     eigenvalues:
       0.500  0.500  0.500
     eigenvectors (columns):
       1.000  0.000  0.000
       0.000  1.000  0.000
       0.000  0.000  1.000
     occupation matrix ns (before diag.):
       0.500  0.000  0.000
       0.000  0.500  0.000
       0.000  0.000  0.500
     ------------------------ ATOM   30 ------------------------
     Tr[ns( 30)] =   3.00000
     eigenvalues:
       0.500  0.500  0.500
     eigenvectors (columns):
       1.000  0.000  0.000
       0.000  1.000  0.000
       0.000  0.000  1.000
     occupation matrix ns (before diag.):
       0.500  0.000  0.000
       0.000  0.500  0.000
       0.000  0.000  0.500
     ------------------------ ATOM   31 ------------------------
     Tr[ns( 31)] =   3.00000
     eigenvalues:
       0.500  0.500  0.500
     eigenvectors (columns):
       1.000  0.000  0.000
       0.000  1.000  0.000
       0.000  0.000  1.000
     occupation matrix ns (before diag.):
       0.500  0.000  0.000
       0.000  0.500  0.000
       0.000  0.000  0.500
     ------------------------ ATOM   32 ------------------------
     Tr[ns( 32)] =   3.00000
     eigenvalues:
       0.500  0.500  0.500
     eigenvectors (columns):
       1.000  0.000  0.000
       0.000  1.000  0.000
       0.000  0.000  1.000
     occupation matrix ns (before diag.):
       0.500  0.000  0.000
       0.000  0.500  0.000
       0.000  0.000  0.500
     ------------------------ ATOM   33 ------------------------
     Tr[ns( 33)] =   1.00000
     eigenvalues:
       0.167  0.167  0.167
     eigenvectors (columns):
       1.000  0.000  0.000
       0.000  1.000  0.000
       0.000  0.000  1.000
     occupation matrix ns (before diag.):
       0.167  0.000  0.000
       0.000  0.167  0.000
       0.000  0.000  0.167
     ------------------------ ATOM   34 ------------------------
     Tr[ns( 34)] =   1.00000
     eigenvalues:
       0.167  0.167  0.167
     eigenvectors (columns):
       1.000  0.000  0.000
       0.000  1.000  0.000
       0.000  0.000  1.000
     occupation matrix ns (before diag.):
       0.167  0.000  0.000
       0.000  0.167  0.000
       0.000  0.000  0.167
     ------------------------ ATOM   35 ------------------------
     Tr[ns( 35)] =   1.00000
     eigenvalues:
       0.167  0.167  0.167
     eigenvectors (columns):
       1.000  0.000  0.000
       0.000  1.000  0.000
       0.000  0.000  1.000
     occupation matrix ns (before diag.):
       0.167  0.000  0.000
       0.000  0.167  0.000
       0.000  0.000  0.167
     ------------------------ ATOM   36 ------------------------
     Tr[ns( 36)] =   1.00000
     eigenvalues:
       0.167  0.167  0.167
     eigenvectors (columns):
       1.000  0.000  0.000
       0.000  1.000  0.000
       0.000  0.000  1.000
     occupation matrix ns (before diag.):
       0.167  0.000  0.000
       0.000  0.167  0.000
       0.000  0.000  0.167
     ------------------------ ATOM   37 ------------------------
     Tr[ns( 37)] =   3.00000
     eigenvalues:
       0.500  0.500  0.500
     eigenvectors (columns):
       1.000  0.000  0.000
       0.000  1.000  0.000
       0.000  0.000  1.000
     occupation matrix ns (before diag.):
       0.500  0.000  0.000
       0.000  0.500  0.000
       0.000  0.000  0.500
     ------------------------ ATOM   38 ------------------------
     Tr[ns( 38)] =   3.00000
     eigenvalues:
       0.500  0.500  0.500
     eigenvectors (columns):
       1.000  0.000  0.000
       0.000  1.000  0.000
       0.000  0.000  1.000
     occupation matrix ns (before diag.):
       0.500  0.000  0.000
       0.000  0.500  0.000
       0.000  0.000  0.500
     ------------------------ ATOM   39 ------------------------
     Tr[ns( 39)] =   3.00000
     eigenvalues:
       0.500  0.500  0.500
     eigenvectors (columns):
       1.000  0.000  0.000
       0.000  1.000  0.000
       0.000  0.000  1.000
     occupation matrix ns (before diag.):
       0.500  0.000  0.000
       0.000  0.500  0.000
       0.000  0.000  0.500
     ------------------------ ATOM   40 ------------------------
     Tr[ns( 40)] =   3.00000
     eigenvalues:
       0.500  0.500  0.500
     eigenvectors (columns):
       1.000  0.000  0.000
       0.000  1.000  0.000
       0.000  0.000  1.000
     occupation matrix ns (before diag.):
       0.500  0.000  0.000
       0.000  0.500  0.000
       0.000  0.000  0.500
     ------------------------ ATOM   41 ------------------------
     Tr[ns( 41)] =   1.00000
     eigenvalues:
       0.167  0.167  0.167
     eigenvectors (columns):
       1.000  0.000  0.000
       0.000  1.000  0.000
       0.000  0.000  1.000
     occupation matrix ns (before diag.):
       0.167  0.000  0.000
       0.000  0.167  0.000
       0.000  0.000  0.167
     ------------------------ ATOM   42 ------------------------
     Tr[ns( 42)] =   1.00000
     eigenvalues:
       0.167  0.167  0.167
     eigenvectors (columns):
       1.000  0.000  0.000
       0.000  1.000  0.000
       0.000  0.000  1.000
     occupation matrix ns (before diag.):
       0.167  0.000  0.000
       0.000  0.167  0.000
       0.000  0.000  0.167
     ------------------------ ATOM   43 ------------------------
     Tr[ns( 43)] =   1.00000
     eigenvalues:
       0.167  0.167  0.167
     eigenvectors (columns):
       1.000  0.000  0.000
       0.000  1.000  0.000
       0.000  0.000  1.000
     occupation matrix ns (before diag.):
       0.167  0.000  0.000
       0.000  0.167  0.000
       0.000  0.000  0.167
     ------------------------ ATOM   44 ------------------------
     Tr[ns( 44)] =   1.00000
     eigenvalues:
       0.167  0.167  0.167
     eigenvectors (columns):
       1.000  0.000  0.000
       0.000  1.000  0.000
       0.000  0.000  1.000
     occupation matrix ns (before diag.):
       0.167  0.000  0.000
       0.000  0.167  0.000
       0.000  0.000  0.167
     ------------------------ ATOM   45 ------------------------
     Tr[ns( 45)] =   3.00000
     eigenvalues:
       0.500  0.500  0.500
     eigenvectors (columns):
       1.000  0.000  0.000
       0.000  1.000  0.000
       0.000  0.000  1.000
     occupation matrix ns (before diag.):
       0.500  0.000  0.000
       0.000  0.500  0.000
       0.000  0.000  0.500
     ------------------------ ATOM   46 ------------------------
     Tr[ns( 46)] =   3.00000
     eigenvalues:
       0.500  0.500  0.500
     eigenvectors (columns):
       1.000  0.000  0.000
       0.000  1.000  0.000
       0.000  0.000  1.000
     occupation matrix ns (before diag.):
       0.500  0.000  0.000
       0.000  0.500  0.000
       0.000  0.000  0.500
     ------------------------ ATOM   47 ------------------------
     Tr[ns( 47)] =   3.00000
     eigenvalues:
       0.500  0.500  0.500
     eigenvectors (columns):
       1.000  0.000  0.000
       0.000  1.000  0.000
       0.000  0.000  1.000
     occupation matrix ns (before diag.):
       0.500  0.000  0.000
       0.000  0.500  0.000
       0.000  0.000  0.500
     ------------------------ ATOM   48 ------------------------
     Tr[ns( 48)] =   3.00000
     eigenvalues:
       0.500  0.500  0.500
     eigenvectors (columns):
       1.000  0.000  0.000
       0.000  1.000  0.000
       0.000  0.000  1.000
     occupation matrix ns (before diag.):
       0.500  0.000  0.000
       0.000  0.500  0.000
       0.000  0.000  0.500
     ------------------------ ATOM   49 ------------------------
     Tr[ns( 49)] =   1.00000
     eigenvalues:
       0.167  0.167  0.167
     eigenvectors (columns):
       1.000  0.000  0.000
       0.000  1.000  0.000
       0.000  0.000  1.000
     occupation matrix ns (before diag.):
       0.167  0.000  0.000
       0.000  0.167  0.000
       0.000  0.000  0.167
     ------------------------ ATOM   50 ------------------------
     Tr[ns( 50)] =   1.00000
     eigenvalues:
       0.167  0.167  0.167
     eigenvectors (columns):
       1.000  0.000  0.000
       0.000  1.000  0.000
       0.000  0.000  1.000
     occupation matrix ns (before diag.):
       0.167  0.000  0.000
       0.000  0.167  0.000
       0.000  0.000  0.167
     ------------------------ ATOM   51 ------------------------
     Tr[ns( 51)] =   1.00000
     eigenvalues:
       0.167  0.167  0.167
     eigenvectors (columns):
       1.000  0.000  0.000
       0.000  1.000  0.000
       0.000  0.000  1.000
     occupation matrix ns (before diag.):
       0.167  0.000  0.000
       0.000  0.167  0.000
       0.000  0.000  0.167
     ------------------------ ATOM   52 ------------------------
     Tr[ns( 52)] =   1.00000
     eigenvalues:
       0.167  0.167  0.167
     eigenvectors (columns):
       1.000  0.000  0.000
       0.000  1.000  0.000
       0.000  0.000  1.000
     occupation matrix ns (before diag.):
       0.167  0.000  0.000
       0.000  0.167  0.000
       0.000  0.000  0.167
     ------------------------ ATOM   53 ------------------------
     Tr[ns( 53)] =   3.00000
     eigenvalues:
       0.500  0.500  0.500
     eigenvectors (columns):
       1.000  0.000  0.000
       0.000  1.000  0.000
       0.000  0.000  1.000
     occupation matrix ns (before diag.):
       0.500  0.000  0.000
       0.000  0.500  0.000
       0.000  0.000  0.500
     ------------------------ ATOM   54 ------------------------
     Tr[ns( 54)] =   3.00000
     eigenvalues:
       0.500  0.500  0.500
     eigenvectors (columns):
       1.000  0.000  0.000
       0.000  1.000  0.000
       0.000  0.000  1.000
     occupation matrix ns (before diag.):
       0.500  0.000  0.000
       0.000  0.500  0.000
       0.000  0.000  0.500
     ------------------------ ATOM   55 ------------------------
     Tr[ns( 55)] =   3.00000
     eigenvalues:
       0.500  0.500  0.500
     eigenvectors (columns):
       1.000  0.000  0.000
       0.000  1.000  0.000
       0.000  0.000  1.000
     occupation matrix ns (before diag.):
       0.500  0.000  0.000
       0.000  0.500  0.000
       0.000  0.000  0.500
     ------------------------ ATOM   56 ------------------------
     Tr[ns( 56)] =   3.00000
     eigenvalues:
       0.500  0.500  0.500
     eigenvectors (columns):
       1.000  0.000  0.000
       0.000  1.000  0.000
       0.000  0.000  1.000
     occupation matrix ns (before diag.):
       0.500  0.000  0.000
       0.000  0.500  0.000
       0.000  0.000  0.500
     ------------------------ ATOM   57 ------------------------
     Tr[ns( 57)] =   1.00000
     eigenvalues:
       0.167  0.167  0.167
     eigenvectors (columns):
       1.000  0.000  0.000
       0.000  1.000  0.000
       0.000  0.000  1.000
     occupation matrix ns (before diag.):
       0.167  0.000  0.000
       0.000  0.167  0.000
       0.000  0.000  0.167
     ------------------------ ATOM   58 ------------------------
     Tr[ns( 58)] =   1.00000
     eigenvalues:
       0.167  0.167  0.167
     eigenvectors (columns):
       1.000  0.000  0.000
       0.000  1.000  0.000
       0.000  0.000  1.000
     occupation matrix ns (before diag.):
       0.167  0.000  0.000
       0.000  0.167  0.000
       0.000  0.000  0.167
     ------------------------ ATOM   59 ------------------------
     Tr[ns( 59)] =   1.00000
     eigenvalues:
       0.167  0.167  0.167
     eigenvectors (columns):
       1.000  0.000  0.000
       0.000  1.000  0.000
       0.000  0.000  1.000
     occupation matrix ns (before diag.):
       0.167  0.000  0.000
       0.000  0.167  0.000
       0.000  0.000  0.167
     ------------------------ ATOM   60 ------------------------
     Tr[ns( 60)] =   1.00000
     eigenvalues:
       0.167  0.167  0.167
     eigenvectors (columns):
       1.000  0.000  0.000
       0.000  1.000  0.000
       0.000  0.000  1.000
     occupation matrix ns (before diag.):
       0.167  0.000  0.000
       0.000  0.167  0.000
       0.000  0.000  0.167
     ------------------------ ATOM   61 ------------------------
     Tr[ns( 61)] =   3.00000
     eigenvalues:
       0.500  0.500  0.500
     eigenvectors (columns):
       1.000  0.000  0.000
       0.000  1.000  0.000
       0.000  0.000  1.000
     occupation matrix ns (before diag.):
       0.500  0.000  0.000
       0.000  0.500  0.000
       0.000  0.000  0.500
     ------------------------ ATOM   62 ------------------------
     Tr[ns( 62)] =   3.00000
     eigenvalues:
       0.500  0.500  0.500
     eigenvectors (columns):
       1.000  0.000  0.000
       0.000  1.000  0.000
       0.000  0.000  1.000
     occupation matrix ns (before diag.):
       0.500  0.000  0.000
       0.000  0.500  0.000
       0.000  0.000  0.500
     ------------------------ ATOM   63 ------------------------
     Tr[ns( 63)] =   3.00000
     eigenvalues:
       0.500  0.500  0.500
     eigenvectors (columns):
       1.000  0.000  0.000
       0.000  1.000  0.000
       0.000  0.000  1.000
     occupation matrix ns (before diag.):
       0.500  0.000  0.000
       0.000  0.500  0.000
       0.000  0.000  0.500
     ------------------------ ATOM   64 ------------------------
     Tr[ns( 64)] =   3.00000
     eigenvalues:
       0.500  0.500  0.500
     eigenvectors (columns):
       1.000  0.000  0.000
       0.000  1.000  0.000
       0.000  0.000  1.000
     occupation matrix ns (before diag.):
       0.500  0.000  0.000
       0.000  0.500  0.000
       0.000  0.000  0.500
     ------------------------ ATOM   65 ------------------------
     Tr[ns( 65)] =   1.00000
     eigenvalues:
       0.167  0.167  0.167
     eigenvectors (columns):
       1.000  0.000  0.000
       0.000  1.000  0.000
       0.000  0.000  1.000
     occupation matrix ns (before diag.):
       0.167  0.000  0.000
       0.000  0.167  0.000
       0.000  0.000  0.167
     ------------------------ ATOM   66 ------------------------
     Tr[ns( 66)] =   1.00000
     eigenvalues:
       0.167  0.167  0.167
     eigenvectors (columns):
       1.000  0.000  0.000
       0.000  1.000  0.000
       0.000  0.000  1.000
     occupation matrix ns (before diag.):
       0.167  0.000  0.000
       0.000  0.167  0.000
       0.000  0.000  0.167
     ------------------------ ATOM   67 ------------------------
     Tr[ns( 67)] =   1.00000
     eigenvalues:
       0.167  0.167  0.167
     eigenvectors (columns):
       1.000  0.000  0.000
       0.000  1.000  0.000
       0.000  0.000  1.000
     occupation matrix ns (before diag.):
       0.167  0.000  0.000
       0.000  0.167  0.000
       0.000  0.000  0.167
     ------------------------ ATOM   68 ------------------------
     Tr[ns( 68)] =   1.00000
     eigenvalues:
       0.167  0.167  0.167
     eigenvectors (columns):
       1.000  0.000  0.000
       0.000  1.000  0.000
       0.000  0.000  1.000
     occupation matrix ns (before diag.):
       0.167  0.000  0.000
       0.000  0.167  0.000
       0.000  0.000  0.167
     ------------------------ ATOM   69 ------------------------
     Tr[ns( 69)] =   3.00000
     eigenvalues:
       0.500  0.500  0.500
     eigenvectors (columns):
       1.000  0.000  0.000
       0.000  1.000  0.000
       0.000  0.000  1.000
     occupation matrix ns (before diag.):
       0.500  0.000  0.000
       0.000  0.500  0.000
       0.000  0.000  0.500
     ------------------------ ATOM   70 ------------------------
     Tr[ns( 70)] =   3.00000
     eigenvalues:
       0.500  0.500  0.500
     eigenvectors (columns):
       1.000  0.000  0.000
       0.000  1.000  0.000
       0.000  0.000  1.000
     occupation matrix ns (before diag.):
       0.500  0.000  0.000
       0.000  0.500  0.000
       0.000  0.000  0.500
     ------------------------ ATOM   71 ------------------------
     Tr[ns( 71)] =   3.00000
     eigenvalues:
       0.500  0.500  0.500
     eigenvectors (columns):
       1.000  0.000  0.000
       0.000  1.000  0.000
       0.000  0.000  1.000
     occupation matrix ns (before diag.):
       0.500  0.000  0.000
       0.000  0.500  0.000
       0.000  0.000  0.500
     ------------------------ ATOM   72 ------------------------
     Tr[ns( 72)] =   3.00000
     eigenvalues:
       0.500  0.500  0.500
     eigenvectors (columns):
       1.000  0.000  0.000
       0.000  1.000  0.000
       0.000  0.000  1.000
     occupation matrix ns (before diag.):
       0.500  0.000  0.000
       0.000  0.500  0.000
       0.000  0.000  0.500
     ------------------------ ATOM   73 ------------------------
     Tr[ns( 73)] =   1.00000
     eigenvalues:
       0.167  0.167  0.167
     eigenvectors (columns):
       1.000  0.000  0.000
       0.000  1.000  0.000
       0.000  0.000  1.000
     occupation matrix ns (before diag.):
       0.167  0.000  0.000
       0.000  0.167  0.000
       0.000  0.000  0.167
     ------------------------ ATOM   74 ------------------------
     Tr[ns( 74)] =   1.00000
     eigenvalues:
       0.167  0.167  0.167
     eigenvectors (columns):
       1.000  0.000  0.000
       0.000  1.000  0.000
       0.000  0.000  1.000
     occupation matrix ns (before diag.):
       0.167  0.000  0.000
       0.000  0.167  0.000
       0.000  0.000  0.167
     ------------------------ ATOM   75 ------------------------
     Tr[ns( 75)] =   1.00000
     eigenvalues:
       0.167  0.167  0.167
     eigenvectors (columns):
       1.000  0.000  0.000
       0.000  1.000  0.000
       0.000  0.000  1.000
     occupation matrix ns (before diag.):
       0.167  0.000  0.000
       0.000  0.167  0.000
       0.000  0.000  0.167
     ------------------------ ATOM   76 ------------------------
     Tr[ns( 76)] =   1.00000
     eigenvalues:
       0.167  0.167  0.167
     eigenvectors (columns):
       1.000  0.000  0.000
       0.000  1.000  0.000
       0.000  0.000  1.000
     occupation matrix ns (before diag.):
       0.167  0.000  0.000
       0.000  0.167  0.000
       0.000  0.000  0.167
     ------------------------ ATOM   77 ------------------------
     Tr[ns( 77)] =   3.00000
     eigenvalues:
       0.500  0.500  0.500
     eigenvectors (columns):
       1.000  0.000  0.000
       0.000  1.000  0.000
       0.000  0.000  1.000
     occupation matrix ns (before diag.):
       0.500  0.000  0.000
       0.000  0.500  0.000
       0.000  0.000  0.500
     ------------------------ ATOM   78 ------------------------
     Tr[ns( 78)] =   3.00000
     eigenvalues:
       0.500  0.500  0.500
     eigenvectors (columns):
       1.000  0.000  0.000
       0.000  1.000  0.000
       0.000  0.000  1.000
     occupation matrix ns (before diag.):
       0.500  0.000  0.000
       0.000  0.500  0.000
       0.000  0.000  0.500
     ------------------------ ATOM   79 ------------------------
     Tr[ns( 79)] =   3.00000
     eigenvalues:
       0.500  0.500  0.500
     eigenvectors (columns):
       1.000  0.000  0.000
       0.000  1.000  0.000
       0.000  0.000  1.000
     occupation matrix ns (before diag.):
       0.500  0.000  0.000
       0.000  0.500  0.000
       0.000  0.000  0.500
     ------------------------ ATOM   80 ------------------------
     Tr[ns( 80)] =   3.00000
     eigenvalues:
       0.500  0.500  0.500
     eigenvectors (columns):
       1.000  0.000  0.000
       0.000  1.000  0.000
       0.000  0.000  1.000
     occupation matrix ns (before diag.):
       0.500  0.000  0.000
       0.000  0.500  0.000
       0.000  0.000  0.500
     ------------------------ ATOM   81 ------------------------
     Tr[ns( 81)] =   1.00000
     eigenvalues:
       0.167  0.167  0.167
     eigenvectors (columns):
       1.000  0.000  0.000
       0.000  1.000  0.000
       0.000  0.000  1.000
     occupation matrix ns (before diag.):
       0.167  0.000  0.000
       0.000  0.167  0.000
       0.000  0.000  0.167
     ------------------------ ATOM   82 ------------------------
     Tr[ns( 82)] =   1.00000
     eigenvalues:
       0.167  0.167  0.167
     eigenvectors (columns):
       1.000  0.000  0.000
       0.000  1.000  0.000
       0.000  0.000  1.000
     occupation matrix ns (before diag.):
       0.167  0.000  0.000
       0.000  0.167  0.000
       0.000  0.000  0.167
     ------------------------ ATOM   83 ------------------------
     Tr[ns( 83)] =   1.00000
     eigenvalues:
       0.167  0.167  0.167
     eigenvectors (columns):
       1.000  0.000  0.000
       0.000  1.000  0.000
       0.000  0.000  1.000
     occupation matrix ns (before diag.):
       0.167  0.000  0.000
       0.000  0.167  0.000
       0.000  0.000  0.167
     ------------------------ ATOM   84 ------------------------
     Tr[ns( 84)] =   1.00000
     eigenvalues:
       0.167  0.167  0.167
     eigenvectors (columns):
       1.000  0.000  0.000
       0.000  1.000  0.000
       0.000  0.000  1.000
     occupation matrix ns (before diag.):
       0.167  0.000  0.000
       0.000  0.167  0.000
       0.000  0.000  0.167
     ------------------------ ATOM   85 ------------------------
     Tr[ns( 85)] =   3.00000
     eigenvalues:
       0.500  0.500  0.500
     eigenvectors (columns):
       1.000  0.000  0.000
       0.000  1.000  0.000
       0.000  0.000  1.000
     occupation matrix ns (before diag.):
       0.500  0.000  0.000
       0.000  0.500  0.000
       0.000  0.000  0.500
     ------------------------ ATOM   86 ------------------------
     Tr[ns( 86)] =   3.00000
     eigenvalues:
       0.500  0.500  0.500
     eigenvectors (columns):
       1.000  0.000  0.000
       0.000  1.000  0.000
       0.000  0.000  1.000
     occupation matrix ns (before diag.):
       0.500  0.000  0.000
       0.000  0.500  0.000
       0.000  0.000  0.500
     ------------------------ ATOM   87 ------------------------
     Tr[ns( 87)] =   3.00000
     eigenvalues:
       0.500  0.500  0.500
     eigenvectors (columns):
       1.000  0.000  0.000
       0.000  1.000  0.000
       0.000  0.000  1.000
     occupation matrix ns (before diag.):
       0.500  0.000  0.000
       0.000  0.500  0.000
       0.000  0.000  0.500
     ------------------------ ATOM   88 ------------------------
     Tr[ns( 88)] =   3.00000
     eigenvalues:
       0.500  0.500  0.500
     eigenvectors (columns):
       1.000  0.000  0.000
       0.000  1.000  0.000
       0.000  0.000  1.000
     occupation matrix ns (before diag.):
       0.500  0.000  0.000
       0.000  0.500  0.000
       0.000  0.000  0.500
     ------------------------ ATOM   89 ------------------------
     Tr[ns( 89)] =   1.00000
     eigenvalues:
       0.167  0.167  0.167
     eigenvectors (columns):
       1.000  0.000  0.000
       0.000  1.000  0.000
       0.000  0.000  1.000
     occupation matrix ns (before diag.):
       0.167  0.000  0.000
       0.000  0.167  0.000
       0.000  0.000  0.167
     ------------------------ ATOM   90 ------------------------
     Tr[ns( 90)] =   1.00000
     eigenvalues:
       0.167  0.167  0.167
     eigenvectors (columns):
       1.000  0.000  0.000
       0.000  1.000  0.000
       0.000  0.000  1.000
     occupation matrix ns (before diag.):
       0.167  0.000  0.000
       0.000  0.167  0.000
       0.000  0.000  0.167
     ------------------------ ATOM   91 ------------------------
     Tr[ns( 91)] =   1.00000
     eigenvalues:
       0.167  0.167  0.167
     eigenvectors (columns):
       1.000  0.000  0.000
       0.000  1.000  0.000
       0.000  0.000  1.000
     occupation matrix ns (before diag.):
       0.167  0.000  0.000
       0.000  0.167  0.000
       0.000  0.000  0.167
     ------------------------ ATOM   92 ------------------------
     Tr[ns( 92)] =   1.00000
     eigenvalues:
       0.167  0.167  0.167
     eigenvectors (columns):
       1.000  0.000  0.000
       0.000  1.000  0.000
       0.000  0.000  1.000
     occupation matrix ns (before diag.):
       0.167  0.000  0.000
       0.000  0.167  0.000
       0.000  0.000  0.167
     ------------------------ ATOM   93 ------------------------
     Tr[ns( 93)] =   3.00000
     eigenvalues:
       0.500  0.500  0.500
     eigenvectors (columns):
       1.000  0.000  0.000
       0.000  1.000  0.000
       0.000  0.000  1.000
     occupation matrix ns (before diag.):
       0.500  0.000  0.000
       0.000  0.500  0.000
       0.000  0.000  0.500
     ------------------------ ATOM   94 ------------------------
     Tr[ns( 94)] =   3.00000
     eigenvalues:
       0.500  0.500  0.500
     eigenvectors (columns):
       1.000  0.000  0.000
       0.000  1.000  0.000
       0.000  0.000  1.000
     occupation matrix ns (before diag.):
       0.500  0.000  0.000
       0.000  0.500  0.000
       0.000  0.000  0.500
     ------------------------ ATOM   95 ------------------------
     Tr[ns( 95)] =   3.00000
     eigenvalues:
       0.500  0.500  0.500
     eigenvectors (columns):
       1.000  0.000  0.000
       0.000  1.000  0.000
       0.000  0.000  1.000
     occupation matrix ns (before diag.):
       0.500  0.000  0.000
       0.000  0.500  0.000
       0.000  0.000  0.500
     ------------------------ ATOM   96 ------------------------
     Tr[ns( 96)] =   3.00000
     eigenvalues:
       0.500  0.500  0.500
     eigenvectors (columns):
       1.000  0.000  0.000
       0.000  1.000  0.000
       0.000  0.000  1.000
     occupation matrix ns (before diag.):
       0.500  0.000  0.000
       0.000  0.500  0.000
       0.000  0.000  0.500
     ------------------------ ATOM   97 ------------------------
     Tr[ns( 97)] =   1.00000
     eigenvalues:
       0.167  0.167  0.167
     eigenvectors (columns):
       1.000  0.000  0.000
       0.000  1.000  0.000
       0.000  0.000  1.000
     occupation matrix ns (before diag.):
       0.167  0.000  0.000
       0.000  0.167  0.000
       0.000  0.000  0.167
     ------------------------ ATOM   98 ------------------------
     Tr[ns( 98)] =   1.00000
     eigenvalues:
       0.167  0.167  0.167
     eigenvectors (columns):
       1.000  0.000  0.000
       0.000  1.000  0.000
       0.000  0.000  1.000
     occupation matrix ns (before diag.):
       0.167  0.000  0.000
       0.000  0.167  0.000
       0.000  0.000  0.167
     ------------------------ ATOM   99 ------------------------
     Tr[ns( 99)] =   1.00000
     eigenvalues:
       0.167  0.167  0.167
     eigenvectors (columns):
       1.000  0.000  0.000
       0.000  1.000  0.000
       0.000  0.000  1.000
     occupation matrix ns (before diag.):
       0.167  0.000  0.000
       0.000  0.167  0.000
       0.000  0.000  0.167
     ------------------------ ATOM  100 ------------------------
     Tr[ns(100)] =   1.00000
     eigenvalues:
       0.167  0.167  0.167
     eigenvectors (columns):
       1.000  0.000  0.000
       0.000  1.000  0.000
       0.000  0.000  1.000
     occupation matrix ns (before diag.):
       0.167  0.000  0.000
       0.000  0.167  0.000
       0.000  0.000  0.167
     ------------------------ ATOM  101 ------------------------
     Tr[ns(101)] =   3.00000
     eigenvalues:
       0.500  0.500  0.500
     eigenvectors (columns):
       1.000  0.000  0.000
       0.000  1.000  0.000
       0.000  0.000  1.000
     occupation matrix ns (before diag.):
       0.500  0.000  0.000
       0.000  0.500  0.000
       0.000  0.000  0.500
     ------------------------ ATOM  102 ------------------------
     Tr[ns(102)] =   3.00000
     eigenvalues:
       0.500  0.500  0.500
     eigenvectors (columns):
       1.000  0.000  0.000
       0.000  1.000  0.000
       0.000  0.000  1.000
     occupation matrix ns (before diag.):
       0.500  0.000  0.000
       0.000  0.500  0.000
       0.000  0.000  0.500
     ------------------------ ATOM  103 ------------------------
     Tr[ns(103)] =   3.00000
     eigenvalues:
       0.500  0.500  0.500
     eigenvectors (columns):
       1.000  0.000  0.000
       0.000  1.000  0.000
       0.000  0.000  1.000
     occupation matrix ns (before diag.):
       0.500  0.000  0.000
       0.000  0.500  0.000
       0.000  0.000  0.500
     ------------------------ ATOM  104 ------------------------
     Tr[ns(104)] =   3.00000
     eigenvalues:
       0.500  0.500  0.500
     eigenvectors (columns):
       1.000  0.000  0.000
       0.000  1.000  0.000
       0.000  0.000  1.000
     occupation matrix ns (before diag.):
       0.500  0.000  0.000
       0.000  0.500  0.000
       0.000  0.000  0.500
     ------------------------ ATOM  105 ------------------------
     Tr[ns(105)] =   1.00000
     eigenvalues:
       0.167  0.167  0.167
     eigenvectors (columns):
       1.000  0.000  0.000
       0.000  1.000  0.000
       0.000  0.000  1.000
     occupation matrix ns (before diag.):
       0.167  0.000  0.000
       0.000  0.167  0.000
       0.000  0.000  0.167
     ------------------------ ATOM  106 ------------------------
     Tr[ns(106)] =   1.00000
     eigenvalues:
       0.167  0.167  0.167
     eigenvectors (columns):
       1.000  0.000  0.000
       0.000  1.000  0.000
       0.000  0.000  1.000
     occupation matrix ns (before diag.):
       0.167  0.000  0.000
       0.000  0.167  0.000
       0.000  0.000  0.167
     ------------------------ ATOM  107 ------------------------
     Tr[ns(107)] =   1.00000
     eigenvalues:
       0.167  0.167  0.167
     eigenvectors (columns):
       1.000  0.000  0.000
       0.000  1.000  0.000
       0.000  0.000  1.000
     occupation matrix ns (before diag.):
       0.167  0.000  0.000
       0.000  0.167  0.000
       0.000  0.000  0.167
     ------------------------ ATOM  108 ------------------------
     Tr[ns(108)] =   1.00000
     eigenvalues:
       0.167  0.167  0.167
     eigenvectors (columns):
       1.000  0.000  0.000
       0.000  1.000  0.000
       0.000  0.000  1.000
     occupation matrix ns (before diag.):
       0.167  0.000  0.000
       0.000  0.167  0.000
       0.000  0.000  0.167
     ------------------------ ATOM  109 ------------------------
     Tr[ns(109)] =   3.00000
     eigenvalues:
       0.500  0.500  0.500
     eigenvectors (columns):
       1.000  0.000  0.000
       0.000  1.000  0.000
       0.000  0.000  1.000
     occupation matrix ns (before diag.):
       0.500  0.000  0.000
       0.000  0.500  0.000
       0.000  0.000  0.500
     ------------------------ ATOM  110 ------------------------
     Tr[ns(110)] =   3.00000
     eigenvalues:
       0.500  0.500  0.500
     eigenvectors (columns):
       1.000  0.000  0.000
       0.000  1.000  0.000
       0.000  0.000  1.000
     occupation matrix ns (before diag.):
       0.500  0.000  0.000
       0.000  0.500  0.000
       0.000  0.000  0.500
     ------------------------ ATOM  111 ------------------------
     Tr[ns(111)] =   3.00000
     eigenvalues:
       0.500  0.500  0.500
     eigenvectors (columns):
       1.000  0.000  0.000
       0.000  1.000  0.000
       0.000  0.000  1.000
     occupation matrix ns (before diag.):
       0.500  0.000  0.000
       0.000  0.500  0.000
       0.000  0.000  0.500
     ------------------------ ATOM  112 ------------------------
     Tr[ns(112)] =   3.00000
     eigenvalues:
       0.500  0.500  0.500
     eigenvectors (columns):
       1.000  0.000  0.000
       0.000  1.000  0.000
       0.000  0.000  1.000
     occupation matrix ns (before diag.):
       0.500  0.000  0.000
       0.000  0.500  0.000
       0.000  0.000  0.500
     ------------------------ ATOM  113 ------------------------
     Tr[ns(113)] =   1.00000
     eigenvalues:
       0.167  0.167  0.167
     eigenvectors (columns):
       1.000  0.000  0.000
       0.000  1.000  0.000
       0.000  0.000  1.000
     occupation matrix ns (before diag.):
       0.167  0.000  0.000
       0.000  0.167  0.000
       0.000  0.000  0.167
     ------------------------ ATOM  114 ------------------------
     Tr[ns(114)] =   1.00000
     eigenvalues:
       0.167  0.167  0.167
     eigenvectors (columns):
       1.000  0.000  0.000
       0.000  1.000  0.000
       0.000  0.000  1.000
     occupation matrix ns (before diag.):
       0.167  0.000  0.000
       0.000  0.167  0.000
       0.000  0.000  0.167
     ------------------------ ATOM  115 ------------------------
     Tr[ns(115)] =   1.00000
     eigenvalues:
       0.167  0.167  0.167
     eigenvectors (columns):
       1.000  0.000  0.000
       0.000  1.000  0.000
       0.000  0.000  1.000
     occupation matrix ns (before diag.):
       0.167  0.000  0.000
       0.000  0.167  0.000
       0.000  0.000  0.167
     ------------------------ ATOM  116 ------------------------
     Tr[ns(116)] =   1.00000
     eigenvalues:
       0.167  0.167  0.167
     eigenvectors (columns):
       1.000  0.000  0.000
       0.000  1.000  0.000
       0.000  0.000  1.000
     occupation matrix ns (before diag.):
       0.167  0.000  0.000
       0.000  0.167  0.000
       0.000  0.000  0.167
     ------------------------ ATOM  117 ------------------------
     Tr[ns(117)] =   3.00000
     eigenvalues:
       0.500  0.500  0.500
     eigenvectors (columns):
       1.000  0.000  0.000
       0.000  1.000  0.000
       0.000  0.000  1.000
     occupation matrix ns (before diag.):
       0.500  0.000  0.000
       0.000  0.500  0.000
       0.000  0.000  0.500
     ------------------------ ATOM  118 ------------------------
     Tr[ns(118)] =   3.00000
     eigenvalues:
       0.500  0.500  0.500
     eigenvectors (columns):
       1.000  0.000  0.000
       0.000  1.000  0.000
       0.000  0.000  1.000
     occupation matrix ns (before diag.):
       0.500  0.000  0.000
       0.000  0.500  0.000
       0.000  0.000  0.500
     ------------------------ ATOM  119 ------------------------
     Tr[ns(119)] =   3.00000
     eigenvalues:
       0.500  0.500  0.500
     eigenvectors (columns):
       1.000  0.000  0.000
       0.000  1.000  0.000
       0.000  0.000  1.000
     occupation matrix ns (before diag.):
       0.500  0.000  0.000
       0.000  0.500  0.000
       0.000  0.000  0.500
     ------------------------ ATOM  120 ------------------------
     Tr[ns(120)] =   3.00000
     eigenvalues:
       0.500  0.500  0.500
     eigenvectors (columns):
       1.000  0.000  0.000
       0.000  1.000  0.000
       0.000  0.000  1.000
     occupation matrix ns (before diag.):
       0.500  0.000  0.000
       0.000  0.500  0.000
       0.000  0.000  0.500
     ------------------------ ATOM  121 ------------------------
     Tr[ns(121)] =   1.00000
     eigenvalues:
       0.167  0.167  0.167
     eigenvectors (columns):
       1.000  0.000  0.000
       0.000  1.000  0.000
       0.000  0.000  1.000
     occupation matrix ns (before diag.):
       0.167  0.000  0.000
       0.000  0.167  0.000
       0.000  0.000  0.167
     ------------------------ ATOM  122 ------------------------
     Tr[ns(122)] =   1.00000
     eigenvalues:
       0.167  0.167  0.167
     eigenvectors (columns):
       1.000  0.000  0.000
       0.000  1.000  0.000
       0.000  0.000  1.000
     occupation matrix ns (before diag.):
       0.167  0.000  0.000
       0.000  0.167  0.000
       0.000  0.000  0.167
     ------------------------ ATOM  123 ------------------------
     Tr[ns(123)] =   1.00000
     eigenvalues:
       0.167  0.167  0.167
     eigenvectors (columns):
       1.000  0.000  0.000
       0.000  1.000  0.000
       0.000  0.000  1.000
     occupation matrix ns (before diag.):
       0.167  0.000  0.000
       0.000  0.167  0.000
       0.000  0.000  0.167
     ------------------------ ATOM  124 ------------------------
     Tr[ns(124)] =   1.00000
     eigenvalues:
       0.167  0.167  0.167
     eigenvectors (columns):
       1.000  0.000  0.000
       0.000  1.000  0.000
       0.000  0.000  1.000
     occupation matrix ns (before diag.):
       0.167  0.000  0.000
       0.000  0.167  0.000
       0.000  0.000  0.167
     ------------------------ ATOM  125 ------------------------
     Tr[ns(125)] =   3.00000
     eigenvalues:
       0.500  0.500  0.500
     eigenvectors (columns):
       1.000  0.000  0.000
       0.000  1.000  0.000
       0.000  0.000  1.000
     occupation matrix ns (before diag.):
       0.500  0.000  0.000
       0.000  0.500  0.000
       0.000  0.000  0.500
     ------------------------ ATOM  126 ------------------------
     Tr[ns(126)] =   3.00000
     eigenvalues:
       0.500  0.500  0.500
     eigenvectors (columns):
       1.000  0.000  0.000
       0.000  1.000  0.000
       0.000  0.000  1.000
     occupation matrix ns (before diag.):
       0.500  0.000  0.000
       0.000  0.500  0.000
       0.000  0.000  0.500
     ------------------------ ATOM  127 ------------------------
     Tr[ns(127)] =   3.00000
     eigenvalues:
       0.500  0.500  0.500
     eigenvectors (columns):
       1.000  0.000  0.000
       0.000  1.000  0.000
       0.000  0.000  1.000
     occupation matrix ns (before diag.):
       0.500  0.000  0.000
       0.000  0.500  0.000
       0.000  0.000  0.500
     ------------------------ ATOM  128 ------------------------
     Tr[ns(128)] =   3.00000
     eigenvalues:
       0.500  0.500  0.500
     eigenvectors (columns):
       1.000  0.000  0.000
       0.000  1.000  0.000
       0.000  0.000  1.000
     occupation matrix ns (before diag.):
       0.500  0.000  0.000
       0.000  0.500  0.000
       0.000  0.000  0.500
     ------------------------ ATOM  129 ------------------------
     Tr[ns(129)] =   1.00000
     eigenvalues:
       0.167  0.167  0.167
     eigenvectors (columns):
       1.000  0.000  0.000
       0.000  1.000  0.000
       0.000  0.000  1.000
     occupation matrix ns (before diag.):
       0.167  0.000  0.000
       0.000  0.167  0.000
       0.000  0.000  0.167
     ------------------------ ATOM  130 ------------------------
     Tr[ns(130)] =   1.00000
     eigenvalues:
       0.167  0.167  0.167
     eigenvectors (columns):
       1.000  0.000  0.000
       0.000  1.000  0.000
       0.000  0.000  1.000
     occupation matrix ns (before diag.):
       0.167  0.000  0.000
       0.000  0.167  0.000
       0.000  0.000  0.167
     ------------------------ ATOM  131 ------------------------
     Tr[ns(131)] =   1.00000
     eigenvalues:
       0.167  0.167  0.167
     eigenvectors (columns):
       1.000  0.000  0.000
       0.000  1.000  0.000
       0.000  0.000  1.000
     occupation matrix ns (before diag.):
       0.167  0.000  0.000
       0.000  0.167  0.000
       0.000  0.000  0.167
     ------------------------ ATOM  132 ------------------------
     Tr[ns(132)] =   1.00000
     eigenvalues:
       0.167  0.167  0.167
     eigenvectors (columns):
       1.000  0.000  0.000
       0.000  1.000  0.000
       0.000  0.000  1.000
     occupation matrix ns (before diag.):
       0.167  0.000  0.000
       0.000  0.167  0.000
       0.000  0.000  0.167
     ------------------------ ATOM  133 ------------------------
     Tr[ns(133)] =   3.00000
     eigenvalues:
       0.500  0.500  0.500
     eigenvectors (columns):
       1.000  0.000  0.000
       0.000  1.000  0.000
       0.000  0.000  1.000
     occupation matrix ns (before diag.):
       0.500  0.000  0.000
       0.000  0.500  0.000
       0.000  0.000  0.500
     ------------------------ ATOM  134 ------------------------
     Tr[ns(134)] =   3.00000
     eigenvalues:
       0.500  0.500  0.500
     eigenvectors (columns):
       1.000  0.000  0.000
       0.000  1.000  0.000
       0.000  0.000  1.000
     occupation matrix ns (before diag.):
       0.500  0.000  0.000
       0.000  0.500  0.000
       0.000  0.000  0.500
     ------------------------ ATOM  135 ------------------------
     Tr[ns(135)] =   3.00000
     eigenvalues:
       0.500  0.500  0.500
     eigenvectors (columns):
       1.000  0.000  0.000
       0.000  1.000  0.000
       0.000  0.000  1.000
     occupation matrix ns (before diag.):
       0.500  0.000  0.000
       0.000  0.500  0.000
       0.000  0.000  0.500
     ------------------------ ATOM  136 ------------------------
     Tr[ns(136)] =   3.00000
     eigenvalues:
       0.500  0.500  0.500
     eigenvectors (columns):
       1.000  0.000  0.000
       0.000  1.000  0.000
       0.000  0.000  1.000
     occupation matrix ns (before diag.):
       0.500  0.000  0.000
       0.000  0.500  0.000
       0.000  0.000  0.500
     ------------------------ ATOM  137 ------------------------
     Tr[ns(137)] =   1.00000
     eigenvalues:
       0.167  0.167  0.167
     eigenvectors (columns):
       1.000  0.000  0.000
       0.000  1.000  0.000
       0.000  0.000  1.000
     occupation matrix ns (before diag.):
       0.167  0.000  0.000
       0.000  0.167  0.000
       0.000  0.000  0.167
     ------------------------ ATOM  138 ------------------------
     Tr[ns(138)] =   1.00000
     eigenvalues:
       0.167  0.167  0.167
     eigenvectors (columns):
       1.000  0.000  0.000
       0.000  1.000  0.000
       0.000  0.000  1.000
     occupation matrix ns (before diag.):
       0.167  0.000  0.000
       0.000  0.167  0.000
       0.000  0.000  0.167
     ------------------------ ATOM  139 ------------------------
     Tr[ns(139)] =   1.00000
     eigenvalues:
       0.167  0.167  0.167
     eigenvectors (columns):
       1.000  0.000  0.000
       0.000  1.000  0.000
       0.000  0.000  1.000
     occupation matrix ns (before diag.):
       0.167  0.000  0.000
       0.000  0.167  0.000
       0.000  0.000  0.167
     ------------------------ ATOM  140 ------------------------
     Tr[ns(140)] =   1.00000
     eigenvalues:
       0.167  0.167  0.167
     eigenvectors (columns):
       1.000  0.000  0.000
       0.000  1.000  0.000
       0.000  0.000  1.000
     occupation matrix ns (before diag.):
       0.167  0.000  0.000
       0.000  0.167  0.000
       0.000  0.000  0.167
     ------------------------ ATOM  141 ------------------------
     Tr[ns(141)] =   3.00000
     eigenvalues:
       0.500  0.500  0.500
     eigenvectors (columns):
       1.000  0.000  0.000
       0.000  1.000  0.000
       0.000  0.000  1.000
     occupation matrix ns (before diag.):
       0.500  0.000  0.000
       0.000  0.500  0.000
       0.000  0.000  0.500
     ------------------------ ATOM  142 ------------------------
     Tr[ns(142)] =   3.00000
     eigenvalues:
       0.500  0.500  0.500
     eigenvectors (columns):
       1.000  0.000  0.000
       0.000  1.000  0.000
       0.000  0.000  1.000
     occupation matrix ns (before diag.):
       0.500  0.000  0.000
       0.000  0.500  0.000
       0.000  0.000  0.500
     ------------------------ ATOM  143 ------------------------
     Tr[ns(143)] =   3.00000
     eigenvalues:
       0.500  0.500  0.500
     eigenvectors (columns):
       1.000  0.000  0.000
       0.000  1.000  0.000
       0.000  0.000  1.000
     occupation matrix ns (before diag.):
       0.500  0.000  0.000
       0.000  0.500  0.000
       0.000  0.000  0.500
     ------------------------ ATOM  144 ------------------------
     Tr[ns(144)] =   3.00000
     eigenvalues:
       0.500  0.500  0.500
     eigenvectors (columns):
       1.000  0.000  0.000
       0.000  1.000  0.000
       0.000  0.000  1.000
     occupation matrix ns (before diag.):
       0.500  0.000  0.000
       0.000  0.500  0.000
       0.000  0.000  0.500
     ------------------------ ATOM  145 ------------------------
     Tr[ns(145)] =   1.00000
     eigenvalues:
       0.167  0.167  0.167
     eigenvectors (columns):
       1.000  0.000  0.000
       0.000  1.000  0.000
       0.000  0.000  1.000
     occupation matrix ns (before diag.):
       0.167  0.000  0.000
       0.000  0.167  0.000
       0.000  0.000  0.167
     ------------------------ ATOM  146 ------------------------
     Tr[ns(146)] =   1.00000
     eigenvalues:
       0.167  0.167  0.167
     eigenvectors (columns):
       1.000  0.000  0.000
       0.000  1.000  0.000
       0.000  0.000  1.000
     occupation matrix ns (before diag.):
       0.167  0.000  0.000
       0.000  0.167  0.000
       0.000  0.000  0.167
     ------------------------ ATOM  147 ------------------------
     Tr[ns(147)] =   1.00000
     eigenvalues:
       0.167  0.167  0.167
     eigenvectors (columns):
       1.000  0.000  0.000
       0.000  1.000  0.000
       0.000  0.000  1.000
     occupation matrix ns (before diag.):
       0.167  0.000  0.000
       0.000  0.167  0.000
       0.000  0.000  0.167
     ------------------------ ATOM  148 ------------------------
     Tr[ns(148)] =   1.00000
     eigenvalues:
       0.167  0.167  0.167
     eigenvectors (columns):
       1.000  0.000  0.000
       0.000  1.000  0.000
       0.000  0.000  1.000
     occupation matrix ns (before diag.):
       0.167  0.000  0.000
       0.000  0.167  0.000
       0.000  0.000  0.167
     ------------------------ ATOM  149 ------------------------
     Tr[ns(149)] =   3.00000
     eigenvalues:
       0.500  0.500  0.500
     eigenvectors (columns):
       1.000  0.000  0.000
       0.000  1.000  0.000
       0.000  0.000  1.000
     occupation matrix ns (before diag.):
       0.500  0.000  0.000
       0.000  0.500  0.000
       0.000  0.000  0.500
     ------------------------ ATOM  150 ------------------------
     Tr[ns(150)] =   3.00000
     eigenvalues:
       0.500  0.500  0.500
     eigenvectors (columns):
       1.000  0.000  0.000
       0.000  1.000  0.000
       0.000  0.000  1.000
     occupation matrix ns (before diag.):
       0.500  0.000  0.000
       0.000  0.500  0.000
       0.000  0.000  0.500
     ------------------------ ATOM  151 ------------------------
     Tr[ns(151)] =   3.00000
     eigenvalues:
       0.500  0.500  0.500
     eigenvectors (columns):
       1.000  0.000  0.000
       0.000  1.000  0.000
       0.000  0.000  1.000
     occupation matrix ns (before diag.):
       0.500  0.000  0.000
       0.000  0.500  0.000
       0.000  0.000  0.500
     ------------------------ ATOM  152 ------------------------
[...]
   -19.7069 -19.7067 -19.7067 -19.7064 -19.7063 -19.7061 -19.7061 -19.7059
   -19.7057 -19.7057 -19.7057 -19.7057 -19.7057 -19.7054 -19.7053 -19.7053
   -19.7053 -19.7051 -19.7051 -19.7050 -19.7049 -19.7047 -19.7045 -19.7044
   -19.7042 -19.7041 -19.7041 -19.7038 -19.7036 -19.7036 -19.7035 -19.7034
   -19.7033 -19.7031 -19.7031 -19.7029 -19.7028 -19.7027 -19.7026 -19.7024
   -19.7022 -19.7021 -19.7020 -19.7019 -19.7019 -19.7019 -19.7018 -19.7018
   -19.7017 -19.7016 -19.7014 -19.7014 -19.7013 -19.7012 -19.7011 -19.7010
   -19.7009 -19.7007 -19.7005 -19.7003 -19.7003 -19.7001 -19.7001 -19.7000
   -19.6998 -19.6996 -19.6993 -19.6992 -19.6992 -19.6991 -19.6988 -19.6987
   -19.6986 -19.6985 -19.6983 -19.6982 -19.6980 -19.6978 -19.6977 -19.6976
   -19.6975 -19.6973 -19.6972 -19.6971 -19.6970 -19.6968 -19.6967 -19.6965
   -19.6965 -19.6964 -19.6963 -19.6963 -19.6962 -19.6961 -19.6960 -19.6959
   -19.6957 -19.6957 -19.6952 -19.6951 -19.6949 -19.6949 -19.6949 -19.6945
   -19.6943 -19.6942 -19.6942 -19.6938 -19.6937 -19.6935 -19.6932 -19.6931
   -19.6930 -19.6930 -19.6929 -19.6928 -19.6923 -19.6922 -19.6921 -19.6920
   -19.6917 -19.6916 -19.6914 -19.6914 -19.6912 -19.6911 -19.6910 -19.6908
   -19.6907 -19.6903 -19.6901 -19.6901 -19.6900 -19.6898 -19.6895 -19.6894
   -19.6892 -19.6891 -19.6889 -19.6889 -19.6887 -19.6886 -19.6885 -19.6885
   -19.6878 -19.6877 -19.6877 -19.6869 -19.6868 -19.6863 -19.6862 -19.6860
   -19.6859 -19.6856 -19.6854 -19.6853 -19.6851 -19.6849 -19.6845 -19.6841
   -19.6837 -19.6836 -19.6835 -19.6834 -19.6833 -19.6831 -19.6831 -19.6829
   -19.6828 -19.6824 -19.6821 -19.6821 -19.6819 -19.6815 -19.6814 -19.6806
   -19.6802 -19.6792 -19.6790 -19.6787 -19.6777 -19.6772 -19.6769 -19.6766
   -19.6764 -19.6757 -19.6756 -19.6754 -19.6750 -19.6746 -19.6726 -19.6718
   -19.6718 -19.6717 -19.6714 -19.6709 -19.6699 -19.6681 -19.6678 -19.6677
   -19.6671 -19.6652 -19.6633 -19.6628  -7.4901  -7.4884  -7.4851  -7.4572
    -7.4565  -7.4524  -7.4481  -7.4453  -7.4435  -7.4412  -7.4400  -7.4392
    -7.4382  -7.4307  -7.4300  -7.4297  -7.4268  -7.4238  -7.4201  -7.4187
    -7.4137  -7.4129  -7.4120  -7.4070  -7.4060  -7.4057  -7.4054  -7.4023
    -7.4017  -7.4011  -7.3980  -7.3966  -7.3964  -7.3959  -7.3958  -7.3956
    -7.3940  -7.3919  -7.3907  -7.3900  -7.3893  -7.3880  -7.3863  -7.3855
    -7.3846  -7.3838  -7.3805  -7.3787  -7.3783  -7.3768  -7.3759  -7.3758
    -7.3752  -7.3745  -7.3741  -7.3710  -7.3704  -7.3700  -7.3695  -7.3691
    -7.3682  -7.3679  -7.3663  -7.3654  -7.3645  -7.3608  -7.3601  -7.3597
    -7.3591  -7.3586  -7.3579  -7.3565  -7.3561  -7.3557  -7.3531  -7.3518
    -7.3512  -7.3500  -7.3496  -7.3491  -7.3487  -7.3480  -7.3473  -7.3462
    -7.3458  -7.3455  -7.3449  -7.3444  -7.3438  -7.3435  -7.3433  -7.3431
    -7.3421  -7.3408  -7.3400  -7.3398  -7.3394  -7.3387  -7.3378  -7.3374
    -7.3368  -7.3362  -7.3357  -7.3343  -7.3341  -7.3333  -7.3331  -7.3326
    -7.3319  -7.3317  -7.3314  -7.3312  -7.3294  -7.3290  -7.3278  -7.3272
    -7.3269  -7.3263  -7.3258  -7.3255  -7.3248  -7.3243  -7.3240  -7.3239
    -7.3235  -7.3233  -7.3228  -7.3224  -7.3219  -7.3213  -7.3210  -7.3203
    -7.3199  -7.3190  -7.3189  -7.3184  -7.3183  -7.3178  -7.3165  -7.3162
    -7.3158  -7.3158  -7.3154  -7.3151  -7.3146  -7.3139  -7.3138  -7.3134
    -7.3133  -7.3128  -7.3124  -7.3124  -7.3119  -7.3116  -7.3110  -7.3102
    -7.3100  -7.3096  -7.3095  -7.3089  -7.3087  -7.3080  -7.3078  -7.3071
    -7.3070  -7.3069  -7.3064  -7.3062  -7.3060  -7.3055  -7.3051  -7.3046
    -7.3044  -7.3032  -7.3027  -7.3026  -7.3020  -7.3018  -7.3013  -7.3012
    -7.3005  -7.2999  -7.2993  -7.2989  -7.2984  -7.2983  -7.2975  -7.2972
    -7.2970  -7.2969  -7.2965  -7.2963  -7.2958  -7.2958  -7.2952  -7.2949
    -7.2946  -7.2941  -7.2939  -7.2934  -7.2929  -7.2927  -7.2917  -7.2913
    -7.2906  -7.2905  -7.2899  -7.2896  -7.2895  -7.2891  -7.2888  -7.2885
    -7.2880  -7.2878  -7.2877  -7.2873  -7.2869  -7.2866  -7.2865  -7.2863
    -7.2854  -7.2852  -7.2850  -7.2846  -7.2845  -7.2841  -7.2838  -7.2835
    -7.2834  -7.2831  -7.2826  -7.2823  -7.2821  -7.2819  -7.2816  -7.2812
    -7.2807  -7.2805  -7.2804  -7.2803  -7.2796  -7.2794  -7.2792  -7.2788
    -7.2784  -7.2778  -7.2777  -7.2774  -7.2772  -7.2769  -7.2766  -7.2764
    -7.2763  -7.2757  -7.2757  -7.2755  -7.2749  -7.2746  -7.2740  -7.2737
    -7.2734  -7.2730  -7.2729  -7.2728  -7.2727  -7.2726  -7.2722  -7.2721
    -7.2716  -7.2716  -7.2710  -7.2707  -7.2702  -7.2698  -7.2697  -7.2694
    -7.2691  -7.2691  -7.2684  -7.2684  -7.2682  -7.2678  -7.2675  -7.2672
    -7.2670  -7.2669  -7.2666  -7.2663  -7.2660  -7.2656  -7.2654  -7.2652
    -7.2649  -7.2646  -7.2642  -7.2634  -7.2631  -7.2628  -7.2625  -7.2621
    -7.2620  -7.2616  -7.2614  -7.2611  -7.2609  -7.2606  -7.2603  -7.2601
    -7.2601  -7.2597  -7.2594  -7.2589  -7.2588  -7.2585  -7.2581  -7.2577
    -7.2571  -7.2561  -7.2553  -7.2550  -7.2548  -7.2546  -7.2542  -7.2538
    -7.2536  -7.2530  -7.2525  -7.2519  -7.2519  -7.2514  -7.2512  -7.2509
    -7.2505  -7.2501  -7.2500  -7.2498  -7.2494  -7.2493  -7.2491  -7.2487
    -7.2484  -7.2479  -7.2475  -7.2473  -7.2468  -7.2465  -7.2464  -7.2457
    -7.2455  -7.2451  -7.2448  -7.2442  -7.2432  -7.2430  -7.2429  -7.2419
    -7.2416  -7.2415  -7.2412  -7.2407  -7.2405  -7.2401  -7.2396  -7.2391
    -7.2388  -7.2388  -7.2385  -7.2381  -7.2375  -7.2374  -7.2370  -7.2368
    -7.2366  -7.2363  -7.2358  -7.2356  -7.2353  -7.2349  -7.2346  -7.2343
    -7.2341  -7.2340  -7.2336  -7.2334  -7.2331  -7.2328  -7.2327  -7.2326
    -7.2320  -7.2319  -7.2318  -7.2316  -7.2313  -7.2313  -7.2306  -7.2304
    -7.2299  -7.2297  -7.2293  -7.2290  -7.2285  -7.2281  -7.2278  -7.2277
    -7.2271  -7.2269  -7.2263  -7.2261  -7.2259  -7.2258  -7.2255  -7.2246
    -7.2244  -7.2240  -7.2237  -7.2235  -7.2230  -7.2220  -7.2216  -7.2211
    -7.2207  -7.2204  -7.2200  -7.2199  -7.2196  -7.2191  -7.2190  -7.2188
    -7.2184  -7.2181  -7.2176  -7.2162  -7.2159  -7.2157  -7.2151  -7.2149
    -7.2145  -7.2141  -7.2138  -7.2133  -7.2120  -7.2117  -7.2114  -7.2104
    -7.2096  -7.2091  -7.2087  -7.2084  -7.2071  -7.2064  -7.2057  -7.2054
    -7.2051  -7.2040  -7.2036  -7.2026  -7.2023  -7.2017  -7.2016  -7.2014
    -7.2008  -7.2003  -7.1990  -7.1988  -7.1984  -7.1981  -7.1977  -7.1972
    -7.1966  -7.1964  -7.1962  -7.1958  -7.1956  -7.1955  -7.1952  -7.1949
    -7.1944  -7.1942  -7.1936  -7.1936  -7.1926  -7.1918  -7.1915  -7.1903
    -7.1896  -7.1892  -7.1890  -7.1887  -7.1883  -7.1879  -7.1872  -7.1869
    -7.1864  -7.1863  -7.1861  -7.1847  -7.1837  -7.1836  -7.1822  -7.1820
    -7.1818  -7.1798  -7.1794  -7.1773  -7.1767  -7.1756  -7.1744  -7.1739
    -7.1730  -7.1726  -7.1709  -7.1701  -7.1687  -7.1676  -7.1668  -7.1651
    -7.1642  -7.1622  -7.1614  -7.1592  -7.1567  -7.1561  -7.1549  -7.1537
    -7.1529  -7.1518  -7.1507  -7.1504  -7.1503  -7.1501  -7.1495  -7.1478
    -7.1466  -7.1445  -7.1444  -7.1418  -7.1307  -7.1291  -7.1242  -7.1229
    -3.5088  -3.4484  -3.3882  -3.3418  -3.2485  -3.2360  -3.2210  -3.1922
    -3.1810  -3.1219  -3.0885  -3.0308  -3.0039  -2.9424  -2.9235  -2.8660
    -2.8246  -2.7966  -2.7707  -2.7385  -2.7132  -2.6859  -2.6670  -2.6438
    -2.6043  -2.5378  -2.5361  -2.4916  -2.4656  -2.4571  -2.4345  -2.4194
    -2.4043  -2.3494  -2.3267  -2.2969  -2.2745  -2.2489  -2.2212  -2.1973
    -2.1848  -2.1508  -2.1392  -2.1329  -2.0991  -2.0488  -2.0266  -2.0239
    -2.0065  -1.9778  -1.9636  -1.9551  -1.9432  -1.9301  -1.9019  -1.8932
    -1.8017  -1.7640  -1.7243  -1.7214  -1.7000  -1.6828  -1.6338  -1.6247
    -1.5772  -1.5470  -1.5295  -1.5243  -1.5176  -1.4990  -1.4785  -1.4697
    -1.4559  -1.4449  -1.4192  -1.4107  -1.4011  -1.3784  -1.3589  -1.3488
    -1.3197  -1.2907  -1.2751  -1.2336  -1.2173  -1.2065  -1.1917  -1.1667
    -1.1385  -1.1339  -1.1305  -1.1017  -1.0721  -1.0541  -1.0326  -1.0225
    -0.9029  -0.8915  -0.8798  -0.8625  -0.8504  -0.8277  -0.8031  -0.7808
    -0.7617  -0.7342  -0.6689  -0.6273  -0.3226  -0.2353  -0.1704  -0.0547
     0.0836   0.1186   0.1224   0.1676   0.1830   0.2012   0.2166   0.2415
     0.2630   0.2906   0.3018   0.3220   0.3392   0.3557   0.3616   0.3816
     0.4087   0.4454   0.4546   0.4782   0.4923   0.5107   0.5627   0.5699
     0.5980   0.6325   0.6453   0.6607   0.6681   0.6885   0.6998   0.7067
     0.7188   0.7366   0.7446   0.7496   0.7677   0.7681   0.7738   0.7907
     0.7971   0.8065   0.8139   0.8180   0.8444   0.8556   0.8671   0.8748
     0.8814   0.8979   0.9014   0.9127   0.9314   0.9452   0.9602   0.9891
     1.4695   1.5458   1.5536   1.6093   1.6407   1.6567   1.6895   1.7079
     1.7401   1.7859   1.7909   1.8164   1.8404   1.8616   1.8675   1.8814
     1.9003   1.9363   1.9415   1.9683   1.9774   1.9849   1.9930   2.0140
     2.0245   2.0544   2.0600   2.0873   2.9512   2.9726   2.9775   2.9922
     3.0017   3.0434   3.0495   3.0783   3.0823   3.0910   3.1053   3.1248
     3.1519   3.1638   3.1717   3.1935   3.2989   3.3066   3.3427   3.3609
     3.3779   3.4013   3.4256   3.4501   3.4592   3.4852   3.4949   3.5009
     3.5215   3.5340   3.5448   3.5792   3.5802   3.5870   3.6207   3.6418
     3.6553   3.6645   3.6794   3.7040   3.7142   3.7248   3.7349   3.7560
     3.7634   3.7656   3.7811   3.8039   3.8161   3.8260   3.8384   3.8404
     3.8521   3.8651   3.8946   3.9004   3.9086   3.9206   3.9442   3.9490
     3.9584   3.9734   3.9819   3.9903   4.1828   4.2148   4.2641   4.3005
     4.3086   4.3316   4.3538   4.4011   4.4248   4.4484   4.4652   4.4834
     4.4924   4.5081   4.5233   4.5350   4.5467   4.5708   4.5763   4.5825
     4.6129   4.6209   4.6392   4.6518   4.6700   4.6822   4.6937   4.7093
     4.7262   4.7355   4.7528   4.7695   4.7906   4.8069   4.8208   4.8452
     4.8638   4.8727   4.8815   4.8862   4.9080   4.9160   4.9266   4.9465
     4.9525   4.9824   5.0113   5.0199   5.0353   5.0424   5.0585   5.0653
     5.0777   5.0871   5.0924   5.1189   5.1275   5.1337   5.1561   5.1636
     5.1759   5.1849   5.1986   5.2102   5.2263   5.2431   5.2483   5.2684
     5.2791   5.2855   5.3013   5.3131   5.3231   5.3397   5.3525   5.3586
     5.3671   5.3836   5.3989   5.4152   5.4288   5.4469   5.4534   5.4686
     5.4815   5.4986   5.5217   5.5291   5.5380   5.5742   5.5852   5.5919
     5.6026   5.6149   5.6388   5.6521   5.6570   5.6865   5.6927   5.7193
     5.7448   5.7611   5.7673   5.7926   5.8113   5.8216   5.8355   5.8447
     5.8637   5.8900   5.9108   5.9370   5.9600   5.9882   6.0111   6.0425
     6.0562   6.0674   6.0699   6.1023   6.1205   6.1378   6.1497   6.1617
     6.1698   6.1795   6.2164   6.2273   6.2543   6.2580   6.2745   6.2884
     6.3088   6.3189   6.3484   6.3695   6.3748   6.3985   6.4171   6.4276
     6.4434   6.4644   6.4832   6.4948   6.5392   6.5418   6.5464   6.5824
     6.5882   6.6020   6.6191   6.6330   6.6497   6.6593   6.6689   6.6983
     6.7011   6.7335   6.7466   6.7589   6.7778   6.8080   6.8239   6.8470
     6.8624   6.9144   6.9756   7.0217   7.4148   7.4544   7.5103   7.5668
     9.1713   9.1954   9.2296   9.2349   9.2798   9.2990   9.3380   9.3649
     9.4243   9.4387   9.4618   9.4626   9.4842   9.4955   9.5039   9.5182
     9.5374   9.5494   9.5704   9.5780   9.5915   9.6043   9.6101   9.6317
     9.6426   9.6593   9.6822   9.6927   9.7165   9.7316   9.7520   9.7863
     9.7877   9.8098   9.8127   9.8354   9.8618   9.8780   9.8863   9.9062
     9.9216   9.9372   9.9398   9.9510   9.9661   9.9737   9.9814   9.9858
    10.0001  10.0146  10.0264  10.0326  10.0457  10.0579  10.0665  10.0775
    10.0860  10.0947  10.1318  10.1458  10.1538  10.1781  10.1827  10.2018
    10.2064  10.2298  10.2399  10.2602  10.2694  10.2717  10.2816  10.2980
    10.3072  10.3178  10.3366  10.3457  10.3484  10.3587  10.3641  10.3800
    10.3823  10.3935  10.4008  10.4100  10.4153  10.4376  10.4462  10.4848
    10.5000  10.5050  10.5273  10.5342  10.5395  10.5633  10.5765  10.5852
    10.5925  10.6089  10.6146  10.6232  10.6376  10.6564  10.6608  10.6833
    10.7141  10.7192  10.7258  10.7304  11.0987  11.1148  11.1341  11.1401
    11.2770  11.3030  11.3153  11.3338  11.3433  11.3526  11.3583  11.3688
    11.3830  11.3925  11.4042  11.4197  11.4217  11.4368  11.4587  11.4725
    11.5009  11.5198  11.5445  11.5494  11.5535  11.5563  11.5653  11.5681
    11.5762  11.5787  11.5967  11.6010  11.6068  11.6095  11.6219  11.6394
    11.6448  11.6486  11.6627  11.6689  11.6929  11.6958  11.7078  11.7460
    11.8877  11.9012  11.9117  11.9175  11.9311  11.9354  11.9619  11.9690
    11.9756  11.9819  11.9968  12.0079  12.0232  12.0246  12.0508  12.0683
    12.1349  12.1638  12.1658  12.1812  12.1988  12.2075  12.2163  12.2175
    12.2259  12.2382  12.2430  12.2540  12.2567  12.2781  12.2858  12.2887
    12.2909  12.3026  12.3124  12.3172  12.3297  12.3358  12.3463  12.3514
    12.3607  12.3765  12.3790  12.3929  12.3937  12.4108  12.4211  12.4351
    12.4446  12.4496  12.4567  12.4653  12.4754  12.4867  12.4967  12.5069
    12.5129  12.5181  12.5236  12.5356  12.5415  12.5477  12.5545  12.5610
    12.5784  12.5825  12.5866  12.6038  12.6146  12.6259  12.6453  12.6643
    12.6918  12.7360  12.7494  12.7639  12.8262  12.8443  12.8545  12.8733
    12.9016  12.9046  12.9143  12.9394  12.9775  12.9822  13.0010  13.0072
    13.0328  13.0415  13.0559  13.0656  13.0738  13.0784  13.0794  13.0964
    13.1101  13.1181  13.1236  13.1364  13.1413  13.1540  13.1606  13.1642
    13.1708  13.1857  13.1961  13.2023  13.2108  13.2139  13.2341  13.2396
    13.2436  13.2485  13.2621  13.2729  13.2956  13.3001  13.3188  13.3400
    13.3512  13.3533  13.3656  13.3748  13.3906  13.4121  13.4251  13.4368
    13.4503  13.4835  13.4985  13.5072  13.5566  13.5861  13.6034  13.6079
    13.6175  13.6294  13.6563  13.6622  13.6754  13.6764  13.6838  13.7030
    13.7130  13.7182  13.7254  13.7267  13.7396  13.7485  13.7607  13.7815
    13.7875  13.7939  13.8041  13.8091  13.8158  13.8176  13.8286  13.8429
    13.8495  13.8551  13.8636  13.8738  13.8877  13.8969  13.9088  13.9193
    13.9226  13.9300  13.9389  13.9458  13.9540  13.9624  13.9672  13.9709
    13.9859  14.0031  14.0074  14.0091  14.0149  14.0298  14.0344  14.0430
    14.0565  14.0648  14.0689  14.0760  14.0809  14.0893  14.0951  14.1008
    14.1106  14.1180  14.1266  14.1353  14.1497  14.1589  14.1611  14.1886
    14.3567  14.3651  14.3764  14.3826  14.3930  14.3988  14.4281  14.4401
    14.5406  14.5782  14.6230  14.6508  14.6829  14.7449  14.7591  14.7885
    14.8377  14.8503  14.8912  14.9034  14.9216  14.9309  14.9449  14.9536
    14.9582  14.9808  14.9841  15.0118  15.0216  15.0318  15.0475  15.0604
    15.2346  15.2368  15.2517  15.2627  15.2804  15.2902  15.3036  15.3142
    15.3223  15.3346  15.3483  15.3541  15.3640  15.3675  15.3866  15.3881
    15.4043  15.4137  15.4260  15.4489  15.4614  15.4724  15.4735  15.4848
    15.4999  15.5064  15.5110  15.5353  15.5539  15.5692  15.5758  15.5854
    15.6111  15.6243  15.6420  15.6505  15.6565  15.6743  15.6889  15.7011
    15.7030  15.7184  15.7360  15.7889  15.8270  15.8445  15.8548  15.8624
    15.8691  15.8879  15.8987  15.9184  15.9432  15.9723  15.9912  16.0174
    16.0246  16.0473  16.0521  16.0581  16.1142  16.1366  16.1631  16.1662
    16.1815  16.1960  16.2010  16.2210  16.2238  16.2270  16.2352  16.2494
    16.2535  16.2627  16.2720  16.2846  16.2927  16.3049  16.3126  16.3318
    16.3467  16.3556  16.3590  16.3798  16.4049  16.4335  16.4488  16.4748
    16.4820  16.4854  16.5000  16.5192  16.5314  16.5381  16.5460  16.5482
    16.5514  16.5738  16.5835  16.5873  16.5961  16.6118  16.6198  16.6206
    16.6430  16.6549  16.6643  16.6705  16.6837  16.6934  16.7054  16.7141
    16.7269  16.7439  16.7512  16.7542  16.7673  16.7718  16.7834  16.7870
    16.7970  16.8134  16.8205  16.8267  16.8474  16.8551  16.8587  16.8775
    16.8885  16.9006  16.9070  16.9094  16.9216  16.9452  16.9587  16.9619
    16.9750  16.9839  16.9982  17.0007  17.0147  17.0375  17.0422  17.0460
    17.0514  17.0559  17.0674  17.0691  17.0762  17.0810  17.0900  17.1084
    17.1138  17.1182  17.1215  17.1318  17.1387  17.1504  17.1569  17.1619
    17.1709  17.1780  17.1820  17.1877  17.1958  17.2104  17.2177  17.2235
    17.2323  17.2401  17.2436  17.2683  17.2720  17.2746  17.2936  17.3006
    17.3684  17.3996  17.4035  17.4188  17.4692  17.4748  17.4849  17.5245
    17.5728  17.5895  17.6131  17.6448  17.6480  17.6534  17.6644  17.6728
    17.6828  17.6857  17.6995  17.7068  17.7202  17.7257  17.7346  17.7403
    17.7458  17.7537  17.7624  17.7663  17.7763  17.7842  17.7983  17.8209
    17.8453  17.8913  17.9081  17.9258  17.9345  17.9462  17.9675  17.9707
    17.9819  18.0039  18.0224  18.0364  18.0473  18.0631  18.0676  18.0761
    18.0946  18.1090  18.1252  18.1442  18.1629  18.1813  18.1939  18.2247
    18.2370  18.2662  18.2742  18.2872  18.2983  18.3269  18.3509  18.3714
    18.3875  18.4047  18.4189  18.4318  18.4443  18.4500  18.4612  18.4622
    18.4738  18.4938  18.5106  18.5155  18.5236  18.5292  18.5387  18.5579
    18.5639  18.5698  18.5841  18.5963  18.6109  18.6181  18.6219  18.6345

     highest occupied, lowest unoccupied level (ev):     7.6191    8.4030

!    total energy              =  -36980.91993845 Ry
     estimated scf accuracy    <       0.00000373 Ry

     The total energy is the sum of the following terms:
     one-electron contribution =  -18777.63801288 Ry
     hartree contribution      =   11380.73387624 Ry
     xc contribution           =   -9493.24324418 Ry
     ewald contribution        =  -20091.49720698 Ry
     Hubbard energy            =       0.72464936 Ry

     convergence has been achieved in  12 iterations

     Writing all to output data dir ./tmp_In0.0Ga1.0As0.25Sb0.75_cube_3x3x3.6/In0.0Ga1.0As0.25Sb0.75_cube_3x3x3.6.save/ :
     XML data file, charge density, pseudopotentials, collected wavefunctions

     init_run     :    242.33s CPU    245.00s WALL (       1 calls)
     electrons    :   9148.05s CPU   9172.12s WALL (       1 calls)

     Called by init_run:
     wfcinit      :    231.89s CPU    234.18s WALL (       1 calls)
     potinit      :      2.06s CPU      2.12s WALL (       1 calls)
     hinit0       :      1.75s CPU      1.76s WALL (       1 calls)

     Called by electrons:
     c_bands      :   8852.27s CPU   8875.20s WALL (      13 calls)
     sum_band     :    290.58s CPU    291.08s WALL (      13 calls)
     v_of_rho     :      3.42s CPU      3.53s WALL (      13 calls)
     mix_rho      :      0.79s CPU      0.80s WALL (      13 calls)

     Called by c_bands:
     init_us_2    :     32.87s CPU     33.41s WALL (      28 calls)
     cegterg      :   8520.17s CPU   8541.70s WALL (      13 calls)

     Called by *egterg:
     cdiaghg      :    798.27s CPU    799.09s WALL (     116 calls)
     h_psi        :   5066.36s CPU   5079.45s WALL (     118 calls)
     g_psi        :      4.28s CPU      4.28s WALL (     104 calls)

     Called by h_psi:
     h_psi:calbec :    890.71s CPU    890.79s WALL (     118 calls)
     vloc_psi     :    747.76s CPU    749.30s WALL (     118 calls)
     add_vuspsi   :    867.93s CPU    870.64s WALL (     118 calls)
     vhpsi        :   2551.72s CPU   2554.96s WALL (     118 calls)

     General routines
     calbec       :   1125.79s CPU   1128.92s WALL (     250 calls)
     fft          :      3.13s CPU      3.23s WALL (     131 calls)
     ffts         :      0.21s CPU      0.22s WALL (      13 calls)
     fftw         :    752.33s CPU    753.91s WALL (  161618 calls)

     Parallel routines

     Hubbard U routines
     new_ns       :     63.02s CPU     63.04s WALL (      13 calls)
     vhpsi        :   2551.72s CPU   2554.96s WALL (     118 calls)

     PWSCF        :      2h37m CPU      2h38m WALL


   This run was terminated on:  23:19:13  13Jun2025            

=------------------------------------------------------------------------------=
   JOB DONE.
=------------------------------------------------------------------------------=
