
     Program PWSCF v.7.3.1 starts on 27Jan2026 at 15:34:46 

     This program is part of the open-source Quantum ESPRESSO suite
     for quantum simulation of materials; please cite
         "P. Giannozzi et al., J. Phys.:Condens. Matter 21 395502 (2009);
         "P. Giannozzi et al., J. Phys.:Condens. Matter 29 465901 (2017);
         "P. Giannozzi et al., J. Chem. Phys. 152 154105 (2020);
          URL http://www.quantum-espresso.org", 
     in publications or presentations arising from this work. More details at
     http://www.quantum-espresso.org/quote

     Parallel version (MPI), running on   640 processors

     MPI processes distributed on     5 nodes
     494642 MiB available memory on the printing compute node when the environment starts

     Reading input from In1.0Ga0.0As0.5Sb0.5_cube_3x3x3.0.scf.in
Warning: card &CELL ignored
Warning: card   CELL_DOFREE = 'ALL', ignored
Warning: card / ignored

     Current dimensions of program PWSCF are:
     Max number of different atomic species (ntypx) = 10
     Max number of k-points (npk) =  40000
     Max angular momentum in pseudopotentials (lmaxx) =  4

     K-points division:     npool     =       8
     R & G space division:  proc/nbgrp/npool/nimage =      80
     Subspace diagonalization in iterative solution of the eigenvalue problem:
     one sub-group per band group will be used
     custom distributed-memory algorithm (size of sub-group:  8*  8 procs)


     Parallelization info
     --------------------
     sticks:   dense  smooth     PW     G-vecs:    dense   smooth      PW
     Min         610     610    156               101394   101394   13208
     Max         611     611    157               101399   101399   13215
     Sum       48817   48817  12557              8111753  8111753 1057027

     Using Slab Decomposition



     bravais-lattice index     =            1
     lattice parameter (alat)  =      35.7468  a.u.
     unit-cell volume          =   45678.4206 (a.u.)^3
     number of atoms/cell      =          216
     number of atomic types    =            4
     number of electrons       =      3024.00
     number of Kohn-Sham states=         2160
     kinetic-energy cutoff     =     120.0000  Ry
     charge density cutoff     =     480.0000  Ry
     scf convergence threshold =      1.0E-05
     mixing beta               =       0.6500
     number of iterations used =            8  plain     mixing
     Exchange-correlation= PBE
                           (   1   4   3   4   0   0   0)
     Hubbard projectors: atomic
     Hubbard parameters of DFT+U (Dudarev formulation) in eV:
     U(As-4p) =  3.2600
     U(Ga-4p) = -2.8000
     U(In-5p) = -1.0150
     U(Sb-5p) =  3.1600

     Internal variables: lda_plus_u =T, lda_plus_u_kind = 0

     celldm(1)=  35.746788  celldm(2)=   0.000000  celldm(3)=   0.000000
     celldm(4)=   0.000000  celldm(5)=   0.000000  celldm(6)=   0.000000

     crystal axes: (cart. coord. in units of alat)
               a(1) = (   1.000000   0.000000   0.000000 )  
               a(2) = (   0.000000   1.000000   0.000000 )  
               a(3) = (   0.000000   0.000000   1.000000 )  

     reciprocal axes: (cart. coord. in units 2 pi/alat)
               b(1) = (  1.000000  0.000000  0.000000 )  
               b(2) = (  0.000000  1.000000  0.000000 )  
               b(3) = (  0.000000  0.000000  1.000000 )  


     PseudoPot. # 1 for As read from file:
     /work/i254/i254/gentles/data/pseudos/As.pbe.NC-SR.standard.v0.5.UPF
     MD5 check sum: bfe1a874457ce592347346129958e7cf
     Pseudo is Norm-conserving + core correction, Zval = 15.0
     Generated using ONCVPSP code by D. R. Hamann
     Using radial grid of 1358 points,  6 beta functions with: 
                l(1) =   0
                l(2) =   0
                l(3) =   1
                l(4) =   1
                l(5) =   2
                l(6) =   2

     PseudoPot. # 2 for Ga read from file:
     /work/i254/i254/gentles/data/pseudos/Ga.pbe.NC-SR.standard.v0.5.UPF
     MD5 check sum: 2bb81bf6f0a8d9832cf3329850435ecf
     Pseudo is Norm-conserving + core correction, Zval = 13.0
     Generated using ONCVPSP code by D. R. Hamann
     Using radial grid of 1902 points,  6 beta functions with: 
                l(1) =   0
                l(2) =   0
                l(3) =   1
                l(4) =   1
                l(5) =   2
                l(6) =   2

     PseudoPot. # 3 for In read from file:
     /work/i254/i254/gentles/data/pseudos/In.pbe.NC-SR.standard.v0.5.UPF
     MD5 check sum: 835f4bf908c982ff75c88e16816a8d7f
     Pseudo is Norm-conserving + core correction, Zval = 13.0
     Generated using ONCVPSP code by D. R. Hamann
     Using radial grid of 1964 points,  6 beta functions with: 
                l(1) =   0
                l(2) =   0
                l(3) =   1
                l(4) =   1
                l(5) =   2
                l(6) =   2

     PseudoPot. # 4 for Sb read from file:
     /work/i254/i254/gentles/data/pseudos/Sb.pbe.NC-SR.standard.v0.5.UPF
     MD5 check sum: 127f69b6101c45666faeae1b5d611565
     Pseudo is Norm-conserving + core correction, Zval = 15.0
     Generated using ONCVPSP code by D. R. Hamann
     Using radial grid of 1434 points,  6 beta functions with: 
                l(1) =   0
                l(2) =   0
                l(3) =   1
                l(4) =   1
                l(5) =   2
                l(6) =   2

     atomic species   valence    mass     pseudopotential
     As               15.00    74.92160     As( 1.00)
     Ga               13.00    69.72300     Ga( 1.00)
     In               13.00   114.81800     In( 1.00)
     Sb               15.00   121.76000     Sb( 1.00)

     No symmetry found



   Cartesian axes

     site n.     atom                  positions (alat units)
         1        In     tau(   1) = (  -0.0018620   0.0110630   0.0022530  )
         2        In     tau(   2) = (   0.0074330   0.1676280   0.1688330  )
         3        In     tau(   3) = (   0.1712840   0.0066040   0.1660930  )
         4        In     tau(   4) = (   0.1616000   0.1656700   0.0056100  )
         5        As     tau(   5) = (   0.0840050   0.0842890   0.0867800  )
         6        As     tau(   6) = (   0.0847030   0.2495580   0.2524920  )
         7        As     tau(   7) = (   0.2512870   0.0852020   0.2533510  )
         8        Sb     tau(   8) = (   0.2503360   0.2500540   0.0887640  )
         9        In     tau(   9) = (  -0.0060200  -0.0040150   0.3404180  )
        10        In     tau(  10) = (  -0.0018120   0.1703890   0.5031300  )
        11        In     tau(  11) = (   0.1658550  -0.0060460   0.4991600  )
        12        In     tau(  12) = (   0.1699830   0.1702530   0.3318500  )
        13        Sb     tau(  13) = (   0.0831330   0.0848680   0.4176520  )
        14        As     tau(  14) = (   0.0836310   0.2485180   0.5845090  )
        15        Sb     tau(  15) = (   0.2487140   0.0845670   0.5809160  )
        16        As     tau(  16) = (   0.2515640   0.2511260   0.4145020  )
        17        In     tau(  17) = (   0.0014410   0.0054720   0.6607980  )
        18        In     tau(  18) = (  -0.0065350   0.1613960   0.8269650  )
        19        In     tau(  19) = (   0.1610940   0.0067060   0.8255310  )
        20        In     tau(  20) = (   0.1631580   0.1688860   0.6688840  )
        21        As     tau(  21) = (   0.0791220   0.0862350   0.7450200  )
        22        Sb     tau(  22) = (   0.0795820   0.2467900   0.9130800  )
        23        Sb     tau(  23) = (   0.2483350   0.0869410   0.9151520  )
        24        As     tau(  24) = (   0.2499330   0.2480270   0.7476970  )
        25        In     tau(  25) = (  -0.0045600   0.3368280  -0.0056600  )
        26        In     tau(  26) = (  -0.0085180   0.4998780   0.1672690  )
        27        In     tau(  27) = (   0.1669850   0.3350120   0.1769870  )
        28        In     tau(  28) = (   0.1667440   0.4987870   0.0021320  )
        29        Sb     tau(  29) = (   0.0806710   0.4151730   0.0865080  )
        30        Sb     tau(  30) = (   0.0836330   0.5802790   0.2518050  )
        31        As     tau(  31) = (   0.2539570   0.4140910   0.2550840  )
        32        Sb     tau(  32) = (   0.2550530   0.5812450   0.0863760  )
        33        In     tau(  33) = (  -0.0047660   0.3269610   0.3295210  )
        34        In     tau(  34) = (   0.0005220   0.4959970   0.5002090  )
        35        In     tau(  35) = (   0.1701220   0.3271550   0.5036990  )
        36        In     tau(  36) = (   0.1749900   0.4967090   0.3349420  )
        37        Sb     tau(  37) = (   0.0848590   0.4100360   0.4148690  )
        38        Sb     tau(  38) = (   0.0859310   0.5833290   0.5827340  )
        39        As     tau(  39) = (   0.2512830   0.4144690   0.5810220  )
        40        As     tau(  40) = (   0.2553050   0.5785930   0.4156220  )
        41        In     tau(  41) = (  -0.0001730   0.3252750   0.6670690  )
        42        In     tau(  42) = (  -0.0068890   0.4945450   0.8344030  )
        43        In     tau(  43) = (   0.1710900   0.3275250   0.8298270  )
        44        In     tau(  44) = (   0.1744280   0.4978180   0.6656520  )
        45        Sb     tau(  45) = (   0.0840710   0.4141020   0.7488350  )
        46        Sb     tau(  46) = (   0.0802720   0.5819260   0.9152270  )
        47        Sb     tau(  47) = (   0.2527630   0.4162740   0.9149350  )
        48        As     tau(  48) = (   0.2539230   0.5814990   0.7469680  )
        49        In     tau(  49) = (  -0.0103220   0.6652300  -0.0013030  )
        50        In     tau(  50) = (  -0.0005190   0.8366900   0.1673090  )
        51        In     tau(  51) = (   0.1659160   0.6674200   0.1659790  )
        52        In     tau(  52) = (   0.1708560   0.8395260   0.0043270  )
        53        Sb     tau(  53) = (   0.0800340   0.7505080   0.0804660  )
        54        Sb     tau(  54) = (   0.0863760   0.9205280   0.2525540  )
        55        Sb     tau(  55) = (   0.2526120   0.7498960   0.2525530  )
        56        As     tau(  56) = (   0.2516350   0.9204060   0.0871640  )
        57        In     tau(  57) = (   0.0008430   0.6689390   0.3355970  )
        58        In     tau(  58) = (  -0.0080380   0.8374050   0.5046390  )
        59        In     tau(  59) = (   0.1732690   0.6621770   0.4931120  )
        60        In     tau(  60) = (   0.1734900   0.8386280   0.3398130  )
        61        Sb     tau(  61) = (   0.0835580   0.7548300   0.4211270  )
        62        As     tau(  62) = (   0.0783490   0.9190690   0.5801120  )
        63        Sb     tau(  63) = (   0.2516570   0.7508590   0.5810880  )
        64        As     tau(  64) = (   0.2544960   0.9204440   0.4185360  )
        65        In     tau(  65) = (  -0.0066080   0.6710690   0.6604400  )
        66        In     tau(  66) = (  -0.0050230   0.8290650   0.8386850  )
        67        In     tau(  67) = (   0.1692220   0.6612330   0.8257390  )
        68        In     tau(  68) = (   0.1597130   0.8374680   0.6598160  )
        69        Sb     tau(  69) = (   0.0807130   0.7503730   0.7481270  )
        70        Sb     tau(  70) = (   0.0815300   0.9214160   0.9178200  )
        71        Sb     tau(  71) = (   0.2495700   0.7473260   0.9170510  )
        72        Sb     tau(  72) = (   0.2486520   0.9191280   0.7447170  )
        73        In     tau(  73) = (   0.3309080  -0.0007280   0.0020010  )
        74        In     tau(  74) = (   0.3352700   0.1676070   0.1778290  )
        75        In     tau(  75) = (   0.5019130  -0.0060470   0.1678430  )
        76        In     tau(  76) = (   0.5004090   0.1735200   0.0006680  )
        77        Sb     tau(  77) = (   0.4176910   0.0849270   0.0867280  )
        78        As     tau(  78) = (   0.4170980   0.2513770   0.2549910  )
        79        Sb     tau(  79) = (   0.5834310   0.0836140   0.2520520  )
        80        As     tau(  80) = (   0.5830350   0.2538540   0.0824420  )
        81        In     tau(  81) = (   0.3330850   0.0018230   0.3336630  )
        82        In     tau(  82) = (   0.3330350   0.1661350   0.4900720  )
        83        In     tau(  83) = (   0.5016880   0.0022380   0.4969410  )
        84        In     tau(  84) = (   0.4925450   0.1655830   0.3357840  )
        85        As     tau(  85) = (   0.4154700   0.0807920   0.4155470  )
        86        Sb     tau(  86) = (   0.4164690   0.2508680   0.5792070  )
        87        As     tau(  87) = (   0.5854010   0.0800520   0.5796000  )
        88        Sb     tau(  88) = (   0.5821340   0.2486780   0.4191080  )
        89        In     tau(  89) = (   0.3389220  -0.0010990   0.6595160  )
        90        In     tau(  90) = (   0.3361090   0.1743730   0.8321310  )
        91        In     tau(  91) = (   0.5066340  -0.0018360   0.8289320  )
        92        In     tau(  92) = (   0.5059660   0.1634130   0.6594940  )
        93        Sb     tau(  93) = (   0.4193620   0.0843330   0.7477590  )
        94        As     tau(  94) = (   0.4194030   0.2516810   0.9161790  )
        95        Sb     tau(  95) = (   0.5864310   0.0849870   0.9177540  )
        96        Sb     tau(  96) = (   0.5846400   0.2521420   0.7481470  )
        97        In     tau(  97) = (   0.3378270   0.3295530  -0.0014070  )
        98        In     tau(  98) = (   0.3359570   0.4958570   0.1762480  )
        99        In     tau(  99) = (   0.5030700   0.3284750   0.1721010  )
       100        In     tau( 100) = (   0.5038210   0.5008560  -0.0024110  )
       101        Sb     tau( 101) = (   0.4205190   0.4150230   0.0856390  )
       102        As     tau( 102) = (   0.4199150   0.5783710   0.2531420  )
       103        As     tau( 103) = (   0.5797650   0.4170010   0.2492480  )
       104        As     tau( 104) = (   0.5821550   0.5796180   0.0829690  )
       105        In     tau( 105) = (   0.3359880   0.3338040   0.3363730  )
       106        In     tau( 106) = (   0.3346520   0.4963320   0.4989660  )
       107        In     tau( 107) = (   0.5003290   0.3424660   0.4987040  )
       108        In     tau( 108) = (   0.5015930   0.4989200   0.3343550  )
       109        As     tau( 109) = (   0.4175570   0.4187380   0.4152400  )
       110        As     tau( 110) = (   0.4167110   0.5778300   0.5801760  )
       111        As     tau( 111) = (   0.5852790   0.4192510   0.5793050  )
       112        As     tau( 112) = (   0.5822810   0.5813580   0.4177710  )
       113        In     tau( 113) = (   0.3269440   0.3314250   0.6657520  )
       114        In     tau( 114) = (   0.3360790   0.5073890   0.8328760  )
       115        In     tau( 115) = (   0.5019160   0.3357140   0.8394580  )
       116        In     tau( 116) = (   0.5018240   0.4977300   0.6591330  )
       117        Sb     tau( 117) = (   0.4165160   0.4165920   0.7489350  )
       118        As     tau( 118) = (   0.4207340   0.5819720   0.9165050  )
       119        As     tau( 119) = (   0.5854390   0.4154230   0.9208340  )
       120        Sb     tau( 120) = (   0.5852130   0.5808050   0.7501550  )
       121        In     tau( 121) = (   0.3406510   0.6627550  -0.0025130  )
       122        In     tau( 122) = (   0.3350260   0.8408030   0.1695500  )
       123        In     tau( 123) = (   0.5011610   0.6573640   0.1692710  )
       124        In     tau( 124) = (   0.5084610   0.8343440   0.0056700  )
       125        Sb     tau( 125) = (   0.4196380   0.7497880   0.0870680  )
       126        As     tau( 126) = (   0.4161870   0.9204260   0.2520860  )
       127        Sb     tau( 127) = (   0.5836220   0.7497230   0.2527260  )
       128        As     tau( 128) = (   0.5865760   0.9157520   0.0873150  )
       129        In     tau( 129) = (   0.3373610   0.6586840   0.3333800  )
       130        In     tau( 130) = (   0.3367950   0.8412310   0.5004740  )
       131        In     tau( 131) = (   0.5000400   0.6593000   0.5006780  )
       132        In     tau( 132) = (   0.5002740   0.8417640   0.3336400  )
       133        Sb     tau( 133) = (   0.4185200   0.7504300   0.4171370  )
       134        As     tau( 134) = (   0.4220210   0.9204100   0.5794630  )
       135        Sb     tau( 135) = (   0.5860760   0.7501500   0.5818410  )
       136        As     tau( 136) = (   0.5840610   0.9205930   0.4163640  )
       137        In     tau( 137) = (   0.3355700   0.6591060   0.6627700  )
       138        In     tau( 138) = (   0.3323990   0.8334180   0.8319830  )
       139        In     tau( 139) = (   0.4985100   0.6648460   0.8353600  )
       140        In     tau( 140) = (   0.5017470   0.8400740   0.6635390  )
       141        Sb     tau( 141) = (   0.4175570   0.7496660   0.7459750  )
       142        Sb     tau( 142) = (   0.4206200   0.9161000   0.9179400  )
       143        Sb     tau( 143) = (   0.5886700   0.7497080   0.9153340  )
       144        As     tau( 144) = (   0.5857900   0.9171010   0.7457770  )
       145        In     tau( 145) = (   0.6662700  -0.0088130  -0.0001210  )
       146        In     tau( 146) = (   0.6621740   0.1702090   0.1610110  )
       147        In     tau( 147) = (   0.8270950  -0.0022420   0.1737980  )
       148        In     tau( 148) = (   0.8330780   0.1669150  -0.0063500  )
       149        Sb     tau( 149) = (   0.7487170   0.0816450   0.0811110  )
       150        Sb     tau( 150) = (   0.7485280   0.2513480   0.2504490  )
       151        Sb     tau( 151) = (   0.9158400   0.0845680   0.2531860  )
       152        Sb     tau( 152) = (   0.9166670   0.2501020   0.0833890  )
       153        In     tau( 153) = (   0.6702390   0.0006550   0.3393580  )
       154        In     tau( 154) = (   0.6701890   0.1616220   0.5029790  )
       155        In     tau( 155) = (   0.8335150   0.0016260   0.5032710  )
       156        In     tau( 156) = (   0.8312730   0.1665550   0.3421400  )
       157        As     tau( 157) = (   0.7516780   0.0816740   0.4213730  )
       158        As     tau( 158) = (   0.7499630   0.2461620   0.5816490  )
       159        As     tau( 159) = (   0.9164760   0.0864130   0.5817200  )
       160        As     tau( 160) = (   0.9163330   0.2482860   0.4176370  )
       161        In     tau( 161) = (   0.6646270  -0.0033050   0.6611670  )
       162        In     tau( 162) = (   0.6731310   0.1726560   0.8357220  )
       163        In     tau( 163) = (   0.8328450  -0.0000950   0.8394360  )
       164        In     tau( 164) = (   0.8357620   0.1692160   0.6629960  )
       165        Sb     tau( 165) = (   0.7508500   0.0829030   0.7479610  )
       166        As     tau( 166) = (   0.7519680   0.2533610   0.9182140  )
       167        As     tau( 167) = (   0.9153180   0.0848990   0.9151320  )
       168        As     tau( 168) = (   0.9155050   0.2472580   0.7488100  )
       169        In     tau( 169) = (   0.6682300   0.3337670   0.0015770  )
       170        In     tau( 170) = (   0.6606770   0.4945260   0.1628510  )
       171        In     tau( 171) = (   0.8314030   0.3397090   0.1656790  )
       172        In     tau( 172) = (   0.8301950   0.4988440  -0.0007020  )
       173        As     tau( 173) = (   0.7480950   0.4176210   0.0821910  )
       174        Sb     tau( 174) = (   0.7462490   0.5800640   0.2498900  )
       175        As     tau( 175) = (   0.9160720   0.4138410   0.2491430  )
       176        As     tau( 176) = (   0.9126390   0.5798860   0.0814530  )
       177        In     tau( 177) = (   0.6600160   0.3374040   0.3301560  )
       178        In     tau( 178) = (   0.6642240   0.5060410   0.5027770  )
       179        In     tau( 179) = (   0.8306450   0.3241460   0.4980120  )
       180        In     tau( 180) = (   0.8361550   0.4943020   0.3304430  )
       181        Sb     tau( 181) = (   0.7473520   0.4164560   0.4184710  )
       182        As     tau( 182) = (   0.7473030   0.5877660   0.5821620  )
       183        Sb     tau( 183) = (   0.9132570   0.4115330   0.5836130  )
       184        Sb     tau( 184) = (   0.9139580   0.5840380   0.4188730  )
       185        In     tau( 185) = (   0.6669260   0.3334290   0.6562880  )
       186        In     tau( 186) = (   0.6671840   0.4964750   0.8406520  )
       187        In     tau( 187) = (   0.8364880   0.3289610   0.8340090  )
       188        In     tau( 188) = (   0.8269620   0.5039900   0.6608810  )
       189        Sb     tau( 189) = (   0.7495660   0.4143290   0.7488710  )
       190        As     tau( 190) = (   0.7491300   0.5812190   0.9185700  )
       191        As     tau( 191) = (   0.9109920   0.4161570   0.9163090  )
       192        Sb     tau( 192) = (   0.9114610   0.5855020   0.7493670  )
       193        In     tau( 193) = (   0.6664240   0.6580820   0.0021060  )
       194        In     tau( 194) = (   0.6687810   0.8385560   0.1704830  )
       195        In     tau( 195) = (   0.8341640   0.6623360   0.1632710  )
       196        In     tau( 196) = (   0.8308270   0.8342200  -0.0088120  )
       197        Sb     tau( 197) = (   0.7494370   0.7508850   0.0819240  )
       198        As     tau( 198) = (   0.7477880   0.9175270   0.2567310  )
       199        Sb     tau( 199) = (   0.9133050   0.7516660   0.2513170  )
       200        Sb     tau( 200) = (   0.9124580   0.9199350   0.0815320  )
       201        In     tau( 201) = (   0.6666200   0.6666530   0.3429870  )
       202        In     tau( 202) = (   0.6678980   0.8388520   0.4955800  )
       203        In     tau( 203) = (   0.8274730   0.6717160   0.5024980  )
       204        In     tau( 204) = (   0.8278640   0.8358700   0.3389300  )
       205        As     tau( 205) = (   0.7479860   0.7526030   0.4193050  )
       206        As     tau( 206) = (   0.7493320   0.9173250   0.5807510  )
       207        As     tau( 207) = (   0.9104790   0.7527220   0.5819670  )
       208        As     tau( 208) = (   0.9108470   0.9165680   0.4212760  )
       209        In     tau( 209) = (   0.6734430   0.6685160   0.6695160  )
       210        In     tau( 210) = (   0.6701960   0.8368730   0.8256510  )
       211        In     tau( 211) = (   0.8259670   0.6695140   0.8368050  )
       212        In     tau( 212) = (   0.8285100   0.8327980   0.6630710  )
       213        As     tau( 213) = (   0.7516370   0.7522230   0.7495250  )
       214        As     tau( 214) = (   0.7480090   0.9157310   0.9130040  )
       215        As     tau( 215) = (   0.9107990   0.7480290   0.9164270  )
       216        Sb     tau( 216) = (   0.9164270   0.9175280   0.7483610  )

     number of k points=     8
                       cart. coord. in units 2pi/alat
        k(    1) = (   0.0000000   0.0000000   0.0000000), wk =   0.2500000
        k(    2) = (   0.0000000   0.0000000  -0.5000000), wk =   0.2500000
        k(    3) = (   0.0000000  -0.5000000  -0.5000000), wk =   0.2500000
        k(    4) = (  -0.5000000  -0.5000000  -0.5000000), wk =   0.2500000
        k(    5) = (  -0.5000000   0.0000000   0.0000000), wk =   0.2500000
        k(    6) = (   0.0000000  -0.5000000   0.0000000), wk =   0.2500000
        k(    7) = (  -0.5000000   0.0000000   0.5000000), wk =   0.2500000
        k(    8) = (  -0.5000000   0.5000000   0.0000000), wk =   0.2500000

     Dense  grid:  8111753 G-vectors     FFT dimensions: ( 250, 250, 250)

     Estimated max dynamical RAM per process >       3.11 GB

     Estimated total dynamical RAM >    1975.81 GB

     Initial potential from superposition of free atoms

     starting charge    3023.5361, renormalised to    3024.0000

     STARTING HUBBARD OCCUPATIONS:

     =================== HUBBARD OCCUPATIONS ===================
     ------------------------ ATOM    1 ------------------------
     Tr[ns(  1)] =   1.00000
     eigenvalues:
       0.167  0.167  0.167
     eigenvectors (columns):
       1.000  0.000  0.000
       0.000  1.000  0.000
       0.000  0.000  1.000
     occupation matrix ns (before diag.):
       0.167  0.000  0.000
       0.000  0.167  0.000
       0.000  0.000  0.167
     ------------------------ ATOM    2 ------------------------
     Tr[ns(  2)] =   1.00000
     eigenvalues:
       0.167  0.167  0.167
     eigenvectors (columns):
       1.000  0.000  0.000
       0.000  1.000  0.000
       0.000  0.000  1.000
     occupation matrix ns (before diag.):
       0.167  0.000  0.000
       0.000  0.167  0.000
       0.000  0.000  0.167
     ------------------------ ATOM    3 ------------------------
     Tr[ns(  3)] =   1.00000
     eigenvalues:
       0.167  0.167  0.167
     eigenvectors (columns):
       1.000  0.000  0.000
       0.000  1.000  0.000
       0.000  0.000  1.000
     occupation matrix ns (before diag.):
       0.167  0.000  0.000
       0.000  0.167  0.000
       0.000  0.000  0.167
     ------------------------ ATOM    4 ------------------------
     Tr[ns(  4)] =   1.00000
     eigenvalues:
       0.167  0.167  0.167
     eigenvectors (columns):
       1.000  0.000  0.000
       0.000  1.000  0.000
       0.000  0.000  1.000
     occupation matrix ns (before diag.):
       0.167  0.000  0.000
       0.000  0.167  0.000
       0.000  0.000  0.167
     ------------------------ ATOM    5 ------------------------
     Tr[ns(  5)] =   3.00000
     eigenvalues:
       0.500  0.500  0.500
     eigenvectors (columns):
       1.000  0.000  0.000
       0.000  1.000  0.000
       0.000  0.000  1.000
     occupation matrix ns (before diag.):
       0.500  0.000  0.000
       0.000  0.500  0.000
       0.000  0.000  0.500
     ------------------------ ATOM    6 ------------------------
     Tr[ns(  6)] =   3.00000
     eigenvalues:
       0.500  0.500  0.500
     eigenvectors (columns):
       1.000  0.000  0.000
       0.000  1.000  0.000
       0.000  0.000  1.000
     occupation matrix ns (before diag.):
       0.500  0.000  0.000
       0.000  0.500  0.000
       0.000  0.000  0.500
     ------------------------ ATOM    7 ------------------------
     Tr[ns(  7)] =   3.00000
     eigenvalues:
       0.500  0.500  0.500
     eigenvectors (columns):
       1.000  0.000  0.000
       0.000  1.000  0.000
       0.000  0.000  1.000
     occupation matrix ns (before diag.):
       0.500  0.000  0.000
       0.000  0.500  0.000
       0.000  0.000  0.500
     ------------------------ ATOM    8 ------------------------
     Tr[ns(  8)] =   3.00000
     eigenvalues:
       0.500  0.500  0.500
     eigenvectors (columns):
       1.000  0.000  0.000
       0.000  1.000  0.000
       0.000  0.000  1.000
     occupation matrix ns (before diag.):
       0.500  0.000  0.000
       0.000  0.500  0.000
       0.000  0.000  0.500
     ------------------------ ATOM    9 ------------------------
     Tr[ns(  9)] =   1.00000
     eigenvalues:
       0.167  0.167  0.167
     eigenvectors (columns):
       1.000  0.000  0.000
       0.000  1.000  0.000
       0.000  0.000  1.000
     occupation matrix ns (before diag.):
       0.167  0.000  0.000
       0.000  0.167  0.000
       0.000  0.000  0.167
     ------------------------ ATOM   10 ------------------------
     Tr[ns( 10)] =   1.00000
     eigenvalues:
       0.167  0.167  0.167
     eigenvectors (columns):
       1.000  0.000  0.000
       0.000  1.000  0.000
       0.000  0.000  1.000
     occupation matrix ns (before diag.):
       0.167  0.000  0.000
       0.000  0.167  0.000
       0.000  0.000  0.167
     ------------------------ ATOM   11 ------------------------
     Tr[ns( 11)] =   1.00000
     eigenvalues:
       0.167  0.167  0.167
     eigenvectors (columns):
       1.000  0.000  0.000
       0.000  1.000  0.000
       0.000  0.000  1.000
     occupation matrix ns (before diag.):
       0.167  0.000  0.000
       0.000  0.167  0.000
       0.000  0.000  0.167
     ------------------------ ATOM   12 ------------------------
     Tr[ns( 12)] =   1.00000
     eigenvalues:
       0.167  0.167  0.167
     eigenvectors (columns):
       1.000  0.000  0.000
       0.000  1.000  0.000
       0.000  0.000  1.000
     occupation matrix ns (before diag.):
       0.167  0.000  0.000
       0.000  0.167  0.000
       0.000  0.000  0.167
     ------------------------ ATOM   13 ------------------------
     Tr[ns( 13)] =   3.00000
     eigenvalues:
       0.500  0.500  0.500
     eigenvectors (columns):
       1.000  0.000  0.000
       0.000  1.000  0.000
       0.000  0.000  1.000
     occupation matrix ns (before diag.):
       0.500  0.000  0.000
       0.000  0.500  0.000
       0.000  0.000  0.500
     ------------------------ ATOM   14 ------------------------
     Tr[ns( 14)] =   3.00000
     eigenvalues:
       0.500  0.500  0.500
     eigenvectors (columns):
       1.000  0.000  0.000
       0.000  1.000  0.000
       0.000  0.000  1.000
     occupation matrix ns (before diag.):
       0.500  0.000  0.000
       0.000  0.500  0.000
       0.000  0.000  0.500
     ------------------------ ATOM   15 ------------------------
     Tr[ns( 15)] =   3.00000
     eigenvalues:
       0.500  0.500  0.500
     eigenvectors (columns):
       1.000  0.000  0.000
       0.000  1.000  0.000
       0.000  0.000  1.000
     occupation matrix ns (before diag.):
       0.500  0.000  0.000
       0.000  0.500  0.000
       0.000  0.000  0.500
     ------------------------ ATOM   16 ------------------------
     Tr[ns( 16)] =   3.00000
     eigenvalues:
       0.500  0.500  0.500
     eigenvectors (columns):
       1.000  0.000  0.000
       0.000  1.000  0.000
       0.000  0.000  1.000
     occupation matrix ns (before diag.):
       0.500  0.000  0.000
       0.000  0.500  0.000
       0.000  0.000  0.500
     ------------------------ ATOM   17 ------------------------
     Tr[ns( 17)] =   1.00000
     eigenvalues:
       0.167  0.167  0.167
     eigenvectors (columns):
       1.000  0.000  0.000
       0.000  1.000  0.000
       0.000  0.000  1.000
     occupation matrix ns (before diag.):
       0.167  0.000  0.000
       0.000  0.167  0.000
       0.000  0.000  0.167
     ------------------------ ATOM   18 ------------------------
     Tr[ns( 18)] =   1.00000
     eigenvalues:
       0.167  0.167  0.167
     eigenvectors (columns):
       1.000  0.000  0.000
       0.000  1.000  0.000
       0.000  0.000  1.000
     occupation matrix ns (before diag.):
       0.167  0.000  0.000
       0.000  0.167  0.000
       0.000  0.000  0.167
     ------------------------ ATOM   19 ------------------------
     Tr[ns( 19)] =   1.00000
     eigenvalues:
       0.167  0.167  0.167
     eigenvectors (columns):
       1.000  0.000  0.000
       0.000  1.000  0.000
       0.000  0.000  1.000
     occupation matrix ns (before diag.):
       0.167  0.000  0.000
       0.000  0.167  0.000
       0.000  0.000  0.167
     ------------------------ ATOM   20 ------------------------
     Tr[ns( 20)] =   1.00000
     eigenvalues:
       0.167  0.167  0.167
     eigenvectors (columns):
       1.000  0.000  0.000
       0.000  1.000  0.000
       0.000  0.000  1.000
     occupation matrix ns (before diag.):
       0.167  0.000  0.000
       0.000  0.167  0.000
       0.000  0.000  0.167
     ------------------------ ATOM   21 ------------------------
     Tr[ns( 21)] =   3.00000
     eigenvalues:
       0.500  0.500  0.500
     eigenvectors (columns):
       1.000  0.000  0.000
       0.000  1.000  0.000
       0.000  0.000  1.000
     occupation matrix ns (before diag.):
       0.500  0.000  0.000
       0.000  0.500  0.000
       0.000  0.000  0.500
     ------------------------ ATOM   22 ------------------------
     Tr[ns( 22)] =   3.00000
     eigenvalues:
       0.500  0.500  0.500
     eigenvectors (columns):
       1.000  0.000  0.000
       0.000  1.000  0.000
       0.000  0.000  1.000
     occupation matrix ns (before diag.):
       0.500  0.000  0.000
       0.000  0.500  0.000
       0.000  0.000  0.500
     ------------------------ ATOM   23 ------------------------
     Tr[ns( 23)] =   3.00000
     eigenvalues:
       0.500  0.500  0.500
     eigenvectors (columns):
       1.000  0.000  0.000
       0.000  1.000  0.000
       0.000  0.000  1.000
     occupation matrix ns (before diag.):
       0.500  0.000  0.000
       0.000  0.500  0.000
       0.000  0.000  0.500
     ------------------------ ATOM   24 ------------------------
     Tr[ns( 24)] =   3.00000
     eigenvalues:
       0.500  0.500  0.500
     eigenvectors (columns):
       1.000  0.000  0.000
       0.000  1.000  0.000
       0.000  0.000  1.000
     occupation matrix ns (before diag.):
       0.500  0.000  0.000
       0.000  0.500  0.000
       0.000  0.000  0.500
     ------------------------ ATOM   25 ------------------------
     Tr[ns( 25)] =   1.00000
     eigenvalues:
       0.167  0.167  0.167
     eigenvectors (columns):
       1.000  0.000  0.000
       0.000  1.000  0.000
       0.000  0.000  1.000
     occupation matrix ns (before diag.):
       0.167  0.000  0.000
       0.000  0.167  0.000
       0.000  0.000  0.167
     ------------------------ ATOM   26 ------------------------
     Tr[ns( 26)] =   1.00000
     eigenvalues:
       0.167  0.167  0.167
     eigenvectors (columns):
       1.000  0.000  0.000
       0.000  1.000  0.000
       0.000  0.000  1.000
     occupation matrix ns (before diag.):
       0.167  0.000  0.000
       0.000  0.167  0.000
       0.000  0.000  0.167
     ------------------------ ATOM   27 ------------------------
     Tr[ns( 27)] =   1.00000
     eigenvalues:
       0.167  0.167  0.167
     eigenvectors (columns):
       1.000  0.000  0.000
       0.000  1.000  0.000
       0.000  0.000  1.000
     occupation matrix ns (before diag.):
       0.167  0.000  0.000
       0.000  0.167  0.000
       0.000  0.000  0.167
     ------------------------ ATOM   28 ------------------------
     Tr[ns( 28)] =   1.00000
     eigenvalues:
       0.167  0.167  0.167
     eigenvectors (columns):
       1.000  0.000  0.000
       0.000  1.000  0.000
       0.000  0.000  1.000
     occupation matrix ns (before diag.):
       0.167  0.000  0.000
       0.000  0.167  0.000
       0.000  0.000  0.167
     ------------------------ ATOM   29 ------------------------
     Tr[ns( 29)] =   3.00000
     eigenvalues:
       0.500  0.500  0.500
     eigenvectors (columns):
       1.000  0.000  0.000
       0.000  1.000  0.000
       0.000  0.000  1.000
     occupation matrix ns (before diag.):
       0.500  0.000  0.000
       0.000  0.500  0.000
       0.000  0.000  0.500
     ------------------------ ATOM   30 ------------------------
     Tr[ns( 30)] =   3.00000
     eigenvalues:
       0.500  0.500  0.500
     eigenvectors (columns):
       1.000  0.000  0.000
       0.000  1.000  0.000
       0.000  0.000  1.000
     occupation matrix ns (before diag.):
       0.500  0.000  0.000
       0.000  0.500  0.000
       0.000  0.000  0.500
     ------------------------ ATOM   31 ------------------------
     Tr[ns( 31)] =   3.00000
     eigenvalues:
       0.500  0.500  0.500
     eigenvectors (columns):
       1.000  0.000  0.000
       0.000  1.000  0.000
       0.000  0.000  1.000
     occupation matrix ns (before diag.):
       0.500  0.000  0.000
       0.000  0.500  0.000
       0.000  0.000  0.500
     ------------------------ ATOM   32 ------------------------
     Tr[ns( 32)] =   3.00000
     eigenvalues:
       0.500  0.500  0.500
     eigenvectors (columns):
       1.000  0.000  0.000
       0.000  1.000  0.000
       0.000  0.000  1.000
     occupation matrix ns (before diag.):
       0.500  0.000  0.000
       0.000  0.500  0.000
       0.000  0.000  0.500
     ------------------------ ATOM   33 ------------------------
     Tr[ns( 33)] =   1.00000
     eigenvalues:
       0.167  0.167  0.167
     eigenvectors (columns):
       1.000  0.000  0.000
       0.000  1.000  0.000
       0.000  0.000  1.000
     occupation matrix ns (before diag.):
       0.167  0.000  0.000
       0.000  0.167  0.000
       0.000  0.000  0.167
     ------------------------ ATOM   34 ------------------------
     Tr[ns( 34)] =   1.00000
     eigenvalues:
       0.167  0.167  0.167
     eigenvectors (columns):
       1.000  0.000  0.000
       0.000  1.000  0.000
       0.000  0.000  1.000
     occupation matrix ns (before diag.):
       0.167  0.000  0.000
       0.000  0.167  0.000
       0.000  0.000  0.167
     ------------------------ ATOM   35 ------------------------
     Tr[ns( 35)] =   1.00000
     eigenvalues:
       0.167  0.167  0.167
     eigenvectors (columns):
       1.000  0.000  0.000
       0.000  1.000  0.000
       0.000  0.000  1.000
     occupation matrix ns (before diag.):
       0.167  0.000  0.000
       0.000  0.167  0.000
       0.000  0.000  0.167
     ------------------------ ATOM   36 ------------------------
     Tr[ns( 36)] =   1.00000
     eigenvalues:
       0.167  0.167  0.167
     eigenvectors (columns):
       1.000  0.000  0.000
       0.000  1.000  0.000
       0.000  0.000  1.000
     occupation matrix ns (before diag.):
       0.167  0.000  0.000
       0.000  0.167  0.000
       0.000  0.000  0.167
     ------------------------ ATOM   37 ------------------------
     Tr[ns( 37)] =   3.00000
     eigenvalues:
       0.500  0.500  0.500
     eigenvectors (columns):
       1.000  0.000  0.000
       0.000  1.000  0.000
       0.000  0.000  1.000
     occupation matrix ns (before diag.):
       0.500  0.000  0.000
       0.000  0.500  0.000
       0.000  0.000  0.500
     ------------------------ ATOM   38 ------------------------
     Tr[ns( 38)] =   3.00000
     eigenvalues:
       0.500  0.500  0.500
     eigenvectors (columns):
       1.000  0.000  0.000
       0.000  1.000  0.000
       0.000  0.000  1.000
     occupation matrix ns (before diag.):
       0.500  0.000  0.000
       0.000  0.500  0.000
       0.000  0.000  0.500
     ------------------------ ATOM   39 ------------------------
     Tr[ns( 39)] =   3.00000
     eigenvalues:
       0.500  0.500  0.500
     eigenvectors (columns):
       1.000  0.000  0.000
       0.000  1.000  0.000
       0.000  0.000  1.000
     occupation matrix ns (before diag.):
       0.500  0.000  0.000
       0.000  0.500  0.000
       0.000  0.000  0.500
     ------------------------ ATOM   40 ------------------------
     Tr[ns( 40)] =   3.00000
     eigenvalues:
       0.500  0.500  0.500
     eigenvectors (columns):
       1.000  0.000  0.000
       0.000  1.000  0.000
       0.000  0.000  1.000
     occupation matrix ns (before diag.):
       0.500  0.000  0.000
       0.000  0.500  0.000
       0.000  0.000  0.500
     ------------------------ ATOM   41 ------------------------
     Tr[ns( 41)] =   1.00000
     eigenvalues:
       0.167  0.167  0.167
     eigenvectors (columns):
       1.000  0.000  0.000
       0.000  1.000  0.000
       0.000  0.000  1.000
     occupation matrix ns (before diag.):
       0.167  0.000  0.000
       0.000  0.167  0.000
       0.000  0.000  0.167
     ------------------------ ATOM   42 ------------------------
     Tr[ns( 42)] =   1.00000
     eigenvalues:
       0.167  0.167  0.167
     eigenvectors (columns):
       1.000  0.000  0.000
       0.000  1.000  0.000
       0.000  0.000  1.000
     occupation matrix ns (before diag.):
       0.167  0.000  0.000
       0.000  0.167  0.000
       0.000  0.000  0.167
     ------------------------ ATOM   43 ------------------------
     Tr[ns( 43)] =   1.00000
     eigenvalues:
       0.167  0.167  0.167
     eigenvectors (columns):
       1.000  0.000  0.000
       0.000  1.000  0.000
       0.000  0.000  1.000
     occupation matrix ns (before diag.):
       0.167  0.000  0.000
       0.000  0.167  0.000
       0.000  0.000  0.167
     ------------------------ ATOM   44 ------------------------
     Tr[ns( 44)] =   1.00000
     eigenvalues:
       0.167  0.167  0.167
     eigenvectors (columns):
       1.000  0.000  0.000
       0.000  1.000  0.000
       0.000  0.000  1.000
     occupation matrix ns (before diag.):
       0.167  0.000  0.000
       0.000  0.167  0.000
       0.000  0.000  0.167
     ------------------------ ATOM   45 ------------------------
     Tr[ns( 45)] =   3.00000
     eigenvalues:
       0.500  0.500  0.500
     eigenvectors (columns):
       1.000  0.000  0.000
       0.000  1.000  0.000
       0.000  0.000  1.000
     occupation matrix ns (before diag.):
       0.500  0.000  0.000
       0.000  0.500  0.000
       0.000  0.000  0.500
     ------------------------ ATOM   46 ------------------------
     Tr[ns( 46)] =   3.00000
     eigenvalues:
       0.500  0.500  0.500
     eigenvectors (columns):
       1.000  0.000  0.000
       0.000  1.000  0.000
       0.000  0.000  1.000
     occupation matrix ns (before diag.):
       0.500  0.000  0.000
       0.000  0.500  0.000
       0.000  0.000  0.500
     ------------------------ ATOM   47 ------------------------
     Tr[ns( 47)] =   3.00000
     eigenvalues:
       0.500  0.500  0.500
     eigenvectors (columns):
       1.000  0.000  0.000
       0.000  1.000  0.000
       0.000  0.000  1.000
     occupation matrix ns (before diag.):
       0.500  0.000  0.000
       0.000  0.500  0.000
       0.000  0.000  0.500
     ------------------------ ATOM   48 ------------------------
     Tr[ns( 48)] =   3.00000
     eigenvalues:
       0.500  0.500  0.500
     eigenvectors (columns):
       1.000  0.000  0.000
       0.000  1.000  0.000
       0.000  0.000  1.000
     occupation matrix ns (before diag.):
       0.500  0.000  0.000
       0.000  0.500  0.000
       0.000  0.000  0.500
     ------------------------ ATOM   49 ------------------------
     Tr[ns( 49)] =   1.00000
     eigenvalues:
       0.167  0.167  0.167
     eigenvectors (columns):
       1.000  0.000  0.000
       0.000  1.000  0.000
       0.000  0.000  1.000
     occupation matrix ns (before diag.):
       0.167  0.000  0.000
       0.000  0.167  0.000
       0.000  0.000  0.167
     ------------------------ ATOM   50 ------------------------
     Tr[ns( 50)] =   1.00000
     eigenvalues:
       0.167  0.167  0.167
     eigenvectors (columns):
       1.000  0.000  0.000
       0.000  1.000  0.000
       0.000  0.000  1.000
     occupation matrix ns (before diag.):
       0.167  0.000  0.000
       0.000  0.167  0.000
       0.000  0.000  0.167
     ------------------------ ATOM   51 ------------------------
     Tr[ns( 51)] =   1.00000
     eigenvalues:
       0.167  0.167  0.167
     eigenvectors (columns):
       1.000  0.000  0.000
       0.000  1.000  0.000
       0.000  0.000  1.000
     occupation matrix ns (before diag.):
       0.167  0.000  0.000
       0.000  0.167  0.000
       0.000  0.000  0.167
     ------------------------ ATOM   52 ------------------------
     Tr[ns( 52)] =   1.00000
     eigenvalues:
       0.167  0.167  0.167
     eigenvectors (columns):
       1.000  0.000  0.000
       0.000  1.000  0.000
       0.000  0.000  1.000
     occupation matrix ns (before diag.):
       0.167  0.000  0.000
       0.000  0.167  0.000
       0.000  0.000  0.167
     ------------------------ ATOM   53 ------------------------
     Tr[ns( 53)] =   3.00000
     eigenvalues:
       0.500  0.500  0.500
     eigenvectors (columns):
       1.000  0.000  0.000
       0.000  1.000  0.000
       0.000  0.000  1.000
     occupation matrix ns (before diag.):
       0.500  0.000  0.000
       0.000  0.500  0.000
       0.000  0.000  0.500
     ------------------------ ATOM   54 ------------------------
     Tr[ns( 54)] =   3.00000
     eigenvalues:
       0.500  0.500  0.500
     eigenvectors (columns):
       1.000  0.000  0.000
       0.000  1.000  0.000
       0.000  0.000  1.000
     occupation matrix ns (before diag.):
       0.500  0.000  0.000
       0.000  0.500  0.000
       0.000  0.000  0.500
     ------------------------ ATOM   55 ------------------------
     Tr[ns( 55)] =   3.00000
     eigenvalues:
       0.500  0.500  0.500
     eigenvectors (columns):
       1.000  0.000  0.000
       0.000  1.000  0.000
       0.000  0.000  1.000
     occupation matrix ns (before diag.):
       0.500  0.000  0.000
       0.000  0.500  0.000
       0.000  0.000  0.500
     ------------------------ ATOM   56 ------------------------
     Tr[ns( 56)] =   3.00000
     eigenvalues:
       0.500  0.500  0.500
     eigenvectors (columns):
       1.000  0.000  0.000
       0.000  1.000  0.000
       0.000  0.000  1.000
     occupation matrix ns (before diag.):
       0.500  0.000  0.000
       0.000  0.500  0.000
       0.000  0.000  0.500
     ------------------------ ATOM   57 ------------------------
     Tr[ns( 57)] =   1.00000
     eigenvalues:
       0.167  0.167  0.167
     eigenvectors (columns):
       1.000  0.000  0.000
       0.000  1.000  0.000
       0.000  0.000  1.000
     occupation matrix ns (before diag.):
       0.167  0.000  0.000
       0.000  0.167  0.000
       0.000  0.000  0.167
     ------------------------ ATOM   58 ------------------------
     Tr[ns( 58)] =   1.00000
     eigenvalues:
       0.167  0.167  0.167
     eigenvectors (columns):
       1.000  0.000  0.000
       0.000  1.000  0.000
       0.000  0.000  1.000
     occupation matrix ns (before diag.):
       0.167  0.000  0.000
       0.000  0.167  0.000
       0.000  0.000  0.167
     ------------------------ ATOM   59 ------------------------
     Tr[ns( 59)] =   1.00000
     eigenvalues:
       0.167  0.167  0.167
     eigenvectors (columns):
       1.000  0.000  0.000
       0.000  1.000  0.000
       0.000  0.000  1.000
     occupation matrix ns (before diag.):
       0.167  0.000  0.000
       0.000  0.167  0.000
       0.000  0.000  0.167
     ------------------------ ATOM   60 ------------------------
     Tr[ns( 60)] =   1.00000
     eigenvalues:
       0.167  0.167  0.167
     eigenvectors (columns):
       1.000  0.000  0.000
       0.000  1.000  0.000
       0.000  0.000  1.000
     occupation matrix ns (before diag.):
       0.167  0.000  0.000
       0.000  0.167  0.000
       0.000  0.000  0.167
     ------------------------ ATOM   61 ------------------------
     Tr[ns( 61)] =   3.00000
     eigenvalues:
       0.500  0.500  0.500
     eigenvectors (columns):
       1.000  0.000  0.000
       0.000  1.000  0.000
       0.000  0.000  1.000
     occupation matrix ns (before diag.):
       0.500  0.000  0.000
       0.000  0.500  0.000
       0.000  0.000  0.500
     ------------------------ ATOM   62 ------------------------
     Tr[ns( 62)] =   3.00000
     eigenvalues:
       0.500  0.500  0.500
     eigenvectors (columns):
       1.000  0.000  0.000
       0.000  1.000  0.000
       0.000  0.000  1.000
     occupation matrix ns (before diag.):
       0.500  0.000  0.000
       0.000  0.500  0.000
       0.000  0.000  0.500
     ------------------------ ATOM   63 ------------------------
     Tr[ns( 63)] =   3.00000
     eigenvalues:
       0.500  0.500  0.500
     eigenvectors (columns):
       1.000  0.000  0.000
       0.000  1.000  0.000
       0.000  0.000  1.000
     occupation matrix ns (before diag.):
       0.500  0.000  0.000
       0.000  0.500  0.000
       0.000  0.000  0.500
     ------------------------ ATOM   64 ------------------------
     Tr[ns( 64)] =   3.00000
     eigenvalues:
       0.500  0.500  0.500
     eigenvectors (columns):
       1.000  0.000  0.000
       0.000  1.000  0.000
       0.000  0.000  1.000
     occupation matrix ns (before diag.):
       0.500  0.000  0.000
       0.000  0.500  0.000
       0.000  0.000  0.500
     ------------------------ ATOM   65 ------------------------
     Tr[ns( 65)] =   1.00000
     eigenvalues:
       0.167  0.167  0.167
     eigenvectors (columns):
       1.000  0.000  0.000
       0.000  1.000  0.000
       0.000  0.000  1.000
     occupation matrix ns (before diag.):
       0.167  0.000  0.000
       0.000  0.167  0.000
       0.000  0.000  0.167
     ------------------------ ATOM   66 ------------------------
     Tr[ns( 66)] =   1.00000
     eigenvalues:
       0.167  0.167  0.167
     eigenvectors (columns):
       1.000  0.000  0.000
       0.000  1.000  0.000
       0.000  0.000  1.000
     occupation matrix ns (before diag.):
       0.167  0.000  0.000
       0.000  0.167  0.000
       0.000  0.000  0.167
     ------------------------ ATOM   67 ------------------------
     Tr[ns( 67)] =   1.00000
     eigenvalues:
       0.167  0.167  0.167
     eigenvectors (columns):
       1.000  0.000  0.000
       0.000  1.000  0.000
       0.000  0.000  1.000
     occupation matrix ns (before diag.):
       0.167  0.000  0.000
       0.000  0.167  0.000
       0.000  0.000  0.167
     ------------------------ ATOM   68 ------------------------
     Tr[ns( 68)] =   1.00000
     eigenvalues:
       0.167  0.167  0.167
     eigenvectors (columns):
       1.000  0.000  0.000
       0.000  1.000  0.000
       0.000  0.000  1.000
     occupation matrix ns (before diag.):
       0.167  0.000  0.000
       0.000  0.167  0.000
       0.000  0.000  0.167
     ------------------------ ATOM   69 ------------------------
     Tr[ns( 69)] =   3.00000
     eigenvalues:
       0.500  0.500  0.500
     eigenvectors (columns):
       1.000  0.000  0.000
       0.000  1.000  0.000
       0.000  0.000  1.000
     occupation matrix ns (before diag.):
       0.500  0.000  0.000
       0.000  0.500  0.000
       0.000  0.000  0.500
     ------------------------ ATOM   70 ------------------------
     Tr[ns( 70)] =   3.00000
     eigenvalues:
       0.500  0.500  0.500
     eigenvectors (columns):
       1.000  0.000  0.000
       0.000  1.000  0.000
       0.000  0.000  1.000
     occupation matrix ns (before diag.):
       0.500  0.000  0.000
       0.000  0.500  0.000
       0.000  0.000  0.500
     ------------------------ ATOM   71 ------------------------
     Tr[ns( 71)] =   3.00000
     eigenvalues:
       0.500  0.500  0.500
     eigenvectors (columns):
       1.000  0.000  0.000
       0.000  1.000  0.000
       0.000  0.000  1.000
     occupation matrix ns (before diag.):
       0.500  0.000  0.000
       0.000  0.500  0.000
       0.000  0.000  0.500
     ------------------------ ATOM   72 ------------------------
     Tr[ns( 72)] =   3.00000
     eigenvalues:
       0.500  0.500  0.500
     eigenvectors (columns):
       1.000  0.000  0.000
       0.000  1.000  0.000
       0.000  0.000  1.000
     occupation matrix ns (before diag.):
       0.500  0.000  0.000
       0.000  0.500  0.000
       0.000  0.000  0.500
     ------------------------ ATOM   73 ------------------------
     Tr[ns( 73)] =   1.00000
     eigenvalues:
       0.167  0.167  0.167
     eigenvectors (columns):
       1.000  0.000  0.000
       0.000  1.000  0.000
       0.000  0.000  1.000
     occupation matrix ns (before diag.):
       0.167  0.000  0.000
       0.000  0.167  0.000
       0.000  0.000  0.167
     ------------------------ ATOM   74 ------------------------
     Tr[ns( 74)] =   1.00000
     eigenvalues:
       0.167  0.167  0.167
     eigenvectors (columns):
       1.000  0.000  0.000
       0.000  1.000  0.000
       0.000  0.000  1.000
     occupation matrix ns (before diag.):
       0.167  0.000  0.000
       0.000  0.167  0.000
       0.000  0.000  0.167
     ------------------------ ATOM   75 ------------------------
     Tr[ns( 75)] =   1.00000
     eigenvalues:
       0.167  0.167  0.167
     eigenvectors (columns):
       1.000  0.000  0.000
       0.000  1.000  0.000
       0.000  0.000  1.000
     occupation matrix ns (before diag.):
       0.167  0.000  0.000
       0.000  0.167  0.000
       0.000  0.000  0.167
     ------------------------ ATOM   76 ------------------------
     Tr[ns( 76)] =   1.00000
     eigenvalues:
       0.167  0.167  0.167
     eigenvectors (columns):
       1.000  0.000  0.000
       0.000  1.000  0.000
       0.000  0.000  1.000
     occupation matrix ns (before diag.):
       0.167  0.000  0.000
       0.000  0.167  0.000
       0.000  0.000  0.167
     ------------------------ ATOM   77 ------------------------
     Tr[ns( 77)] =   3.00000
     eigenvalues:
       0.500  0.500  0.500
     eigenvectors (columns):
       1.000  0.000  0.000
       0.000  1.000  0.000
       0.000  0.000  1.000
     occupation matrix ns (before diag.):
       0.500  0.000  0.000
       0.000  0.500  0.000
       0.000  0.000  0.500
     ------------------------ ATOM   78 ------------------------
     Tr[ns( 78)] =   3.00000
     eigenvalues:
       0.500  0.500  0.500
     eigenvectors (columns):
       1.000  0.000  0.000
       0.000  1.000  0.000
       0.000  0.000  1.000
     occupation matrix ns (before diag.):
       0.500  0.000  0.000
       0.000  0.500  0.000
       0.000  0.000  0.500
     ------------------------ ATOM   79 ------------------------
     Tr[ns( 79)] =   3.00000
     eigenvalues:
       0.500  0.500  0.500
     eigenvectors (columns):
       1.000  0.000  0.000
       0.000  1.000  0.000
       0.000  0.000  1.000
     occupation matrix ns (before diag.):
       0.500  0.000  0.000
       0.000  0.500  0.000
       0.000  0.000  0.500
     ------------------------ ATOM   80 ------------------------
     Tr[ns( 80)] =   3.00000
     eigenvalues:
       0.500  0.500  0.500
     eigenvectors (columns):
       1.000  0.000  0.000
       0.000  1.000  0.000
       0.000  0.000  1.000
     occupation matrix ns (before diag.):
       0.500  0.000  0.000
       0.000  0.500  0.000
       0.000  0.000  0.500
     ------------------------ ATOM   81 ------------------------
     Tr[ns( 81)] =   1.00000
     eigenvalues:
       0.167  0.167  0.167
     eigenvectors (columns):
       1.000  0.000  0.000
       0.000  1.000  0.000
       0.000  0.000  1.000
     occupation matrix ns (before diag.):
       0.167  0.000  0.000
       0.000  0.167  0.000
       0.000  0.000  0.167
     ------------------------ ATOM   82 ------------------------
     Tr[ns( 82)] =   1.00000
     eigenvalues:
       0.167  0.167  0.167
     eigenvectors (columns):
       1.000  0.000  0.000
       0.000  1.000  0.000
       0.000  0.000  1.000
     occupation matrix ns (before diag.):
       0.167  0.000  0.000
       0.000  0.167  0.000
       0.000  0.000  0.167
     ------------------------ ATOM   83 ------------------------
     Tr[ns( 83)] =   1.00000
     eigenvalues:
       0.167  0.167  0.167
     eigenvectors (columns):
       1.000  0.000  0.000
       0.000  1.000  0.000
       0.000  0.000  1.000
     occupation matrix ns (before diag.):
       0.167  0.000  0.000
       0.000  0.167  0.000
       0.000  0.000  0.167
     ------------------------ ATOM   84 ------------------------
     Tr[ns( 84)] =   1.00000
     eigenvalues:
       0.167  0.167  0.167
     eigenvectors (columns):
       1.000  0.000  0.000
       0.000  1.000  0.000
       0.000  0.000  1.000
     occupation matrix ns (before diag.):
       0.167  0.000  0.000
       0.000  0.167  0.000
       0.000  0.000  0.167
     ------------------------ ATOM   85 ------------------------
     Tr[ns( 85)] =   3.00000
     eigenvalues:
       0.500  0.500  0.500
     eigenvectors (columns):
       1.000  0.000  0.000
       0.000  1.000  0.000
       0.000  0.000  1.000
     occupation matrix ns (before diag.):
       0.500  0.000  0.000
       0.000  0.500  0.000
       0.000  0.000  0.500
     ------------------------ ATOM   86 ------------------------
     Tr[ns( 86)] =   3.00000
     eigenvalues:
       0.500  0.500  0.500
     eigenvectors (columns):
       1.000  0.000  0.000
       0.000  1.000  0.000
       0.000  0.000  1.000
     occupation matrix ns (before diag.):
       0.500  0.000  0.000
       0.000  0.500  0.000
       0.000  0.000  0.500
     ------------------------ ATOM   87 ------------------------
     Tr[ns( 87)] =   3.00000
     eigenvalues:
       0.500  0.500  0.500
     eigenvectors (columns):
       1.000  0.000  0.000
       0.000  1.000  0.000
       0.000  0.000  1.000
     occupation matrix ns (before diag.):
       0.500  0.000  0.000
       0.000  0.500  0.000
       0.000  0.000  0.500
     ------------------------ ATOM   88 ------------------------
     Tr[ns( 88)] =   3.00000
     eigenvalues:
       0.500  0.500  0.500
     eigenvectors (columns):
       1.000  0.000  0.000
       0.000  1.000  0.000
       0.000  0.000  1.000
     occupation matrix ns (before diag.):
       0.500  0.000  0.000
       0.000  0.500  0.000
       0.000  0.000  0.500
     ------------------------ ATOM   89 ------------------------
     Tr[ns( 89)] =   1.00000
     eigenvalues:
       0.167  0.167  0.167
     eigenvectors (columns):
       1.000  0.000  0.000
       0.000  1.000  0.000
       0.000  0.000  1.000
     occupation matrix ns (before diag.):
       0.167  0.000  0.000
       0.000  0.167  0.000
       0.000  0.000  0.167
     ------------------------ ATOM   90 ------------------------
     Tr[ns( 90)] =   1.00000
     eigenvalues:
       0.167  0.167  0.167
     eigenvectors (columns):
       1.000  0.000  0.000
       0.000  1.000  0.000
       0.000  0.000  1.000
     occupation matrix ns (before diag.):
       0.167  0.000  0.000
       0.000  0.167  0.000
       0.000  0.000  0.167
     ------------------------ ATOM   91 ------------------------
     Tr[ns( 91)] =   1.00000
     eigenvalues:
       0.167  0.167  0.167
     eigenvectors (columns):
       1.000  0.000  0.000
       0.000  1.000  0.000
       0.000  0.000  1.000
     occupation matrix ns (before diag.):
       0.167  0.000  0.000
       0.000  0.167  0.000
       0.000  0.000  0.167
     ------------------------ ATOM   92 ------------------------
     Tr[ns( 92)] =   1.00000
     eigenvalues:
       0.167  0.167  0.167
     eigenvectors (columns):
       1.000  0.000  0.000
       0.000  1.000  0.000
       0.000  0.000  1.000
     occupation matrix ns (before diag.):
       0.167  0.000  0.000
       0.000  0.167  0.000
       0.000  0.000  0.167
     ------------------------ ATOM   93 ------------------------
     Tr[ns( 93)] =   3.00000
     eigenvalues:
       0.500  0.500  0.500
     eigenvectors (columns):
       1.000  0.000  0.000
       0.000  1.000  0.000
       0.000  0.000  1.000
     occupation matrix ns (before diag.):
       0.500  0.000  0.000
       0.000  0.500  0.000
       0.000  0.000  0.500
     ------------------------ ATOM   94 ------------------------
     Tr[ns( 94)] =   3.00000
     eigenvalues:
       0.500  0.500  0.500
     eigenvectors (columns):
       1.000  0.000  0.000
       0.000  1.000  0.000
       0.000  0.000  1.000
     occupation matrix ns (before diag.):
       0.500  0.000  0.000
       0.000  0.500  0.000
       0.000  0.000  0.500
     ------------------------ ATOM   95 ------------------------
     Tr[ns( 95)] =   3.00000
     eigenvalues:
       0.500  0.500  0.500
     eigenvectors (columns):
       1.000  0.000  0.000
       0.000  1.000  0.000
       0.000  0.000  1.000
     occupation matrix ns (before diag.):
       0.500  0.000  0.000
       0.000  0.500  0.000
       0.000  0.000  0.500
     ------------------------ ATOM   96 ------------------------
     Tr[ns( 96)] =   3.00000
     eigenvalues:
       0.500  0.500  0.500
     eigenvectors (columns):
       1.000  0.000  0.000
       0.000  1.000  0.000
       0.000  0.000  1.000
     occupation matrix ns (before diag.):
       0.500  0.000  0.000
       0.000  0.500  0.000
       0.000  0.000  0.500
     ------------------------ ATOM   97 ------------------------
     Tr[ns( 97)] =   1.00000
     eigenvalues:
       0.167  0.167  0.167
     eigenvectors (columns):
       1.000  0.000  0.000
       0.000  1.000  0.000
       0.000  0.000  1.000
     occupation matrix ns (before diag.):
       0.167  0.000  0.000
       0.000  0.167  0.000
       0.000  0.000  0.167
     ------------------------ ATOM   98 ------------------------
     Tr[ns( 98)] =   1.00000
     eigenvalues:
       0.167  0.167  0.167
     eigenvectors (columns):
       1.000  0.000  0.000
       0.000  1.000  0.000
       0.000  0.000  1.000
     occupation matrix ns (before diag.):
       0.167  0.000  0.000
       0.000  0.167  0.000
       0.000  0.000  0.167
     ------------------------ ATOM   99 ------------------------
     Tr[ns( 99)] =   1.00000
     eigenvalues:
       0.167  0.167  0.167
     eigenvectors (columns):
       1.000  0.000  0.000
       0.000  1.000  0.000
       0.000  0.000  1.000
     occupation matrix ns (before diag.):
       0.167  0.000  0.000
       0.000  0.167  0.000
       0.000  0.000  0.167
     ------------------------ ATOM  100 ------------------------
     Tr[ns(100)] =   1.00000
     eigenvalues:
       0.167  0.167  0.167
     eigenvectors (columns):
       1.000  0.000  0.000
       0.000  1.000  0.000
       0.000  0.000  1.000
     occupation matrix ns (before diag.):
       0.167  0.000  0.000
       0.000  0.167  0.000
       0.000  0.000  0.167
     ------------------------ ATOM  101 ------------------------
     Tr[ns(101)] =   3.00000
     eigenvalues:
       0.500  0.500  0.500
     eigenvectors (columns):
       1.000  0.000  0.000
       0.000  1.000  0.000
       0.000  0.000  1.000
     occupation matrix ns (before diag.):
       0.500  0.000  0.000
       0.000  0.500  0.000
       0.000  0.000  0.500
     ------------------------ ATOM  102 ------------------------
     Tr[ns(102)] =   3.00000
     eigenvalues:
       0.500  0.500  0.500
     eigenvectors (columns):
       1.000  0.000  0.000
       0.000  1.000  0.000
       0.000  0.000  1.000
     occupation matrix ns (before diag.):
       0.500  0.000  0.000
       0.000  0.500  0.000
       0.000  0.000  0.500
     ------------------------ ATOM  103 ------------------------
     Tr[ns(103)] =   3.00000
     eigenvalues:
       0.500  0.500  0.500
     eigenvectors (columns):
       1.000  0.000  0.000
       0.000  1.000  0.000
       0.000  0.000  1.000
     occupation matrix ns (before diag.):
       0.500  0.000  0.000
       0.000  0.500  0.000
       0.000  0.000  0.500
     ------------------------ ATOM  104 ------------------------
     Tr[ns(104)] =   3.00000
     eigenvalues:
       0.500  0.500  0.500
     eigenvectors (columns):
       1.000  0.000  0.000
       0.000  1.000  0.000
       0.000  0.000  1.000
     occupation matrix ns (before diag.):
       0.500  0.000  0.000
       0.000  0.500  0.000
       0.000  0.000  0.500
     ------------------------ ATOM  105 ------------------------
     Tr[ns(105)] =   1.00000
     eigenvalues:
       0.167  0.167  0.167
     eigenvectors (columns):
       1.000  0.000  0.000
       0.000  1.000  0.000
       0.000  0.000  1.000
     occupation matrix ns (before diag.):
       0.167  0.000  0.000
       0.000  0.167  0.000
       0.000  0.000  0.167
     ------------------------ ATOM  106 ------------------------
     Tr[ns(106)] =   1.00000
     eigenvalues:
       0.167  0.167  0.167
     eigenvectors (columns):
       1.000  0.000  0.000
       0.000  1.000  0.000
       0.000  0.000  1.000
     occupation matrix ns (before diag.):
       0.167  0.000  0.000
       0.000  0.167  0.000
       0.000  0.000  0.167
     ------------------------ ATOM  107 ------------------------
     Tr[ns(107)] =   1.00000
     eigenvalues:
       0.167  0.167  0.167
     eigenvectors (columns):
       1.000  0.000  0.000
       0.000  1.000  0.000
       0.000  0.000  1.000
     occupation matrix ns (before diag.):
       0.167  0.000  0.000
       0.000  0.167  0.000
       0.000  0.000  0.167
     ------------------------ ATOM  108 ------------------------
     Tr[ns(108)] =   1.00000
     eigenvalues:
       0.167  0.167  0.167
     eigenvectors (columns):
       1.000  0.000  0.000
       0.000  1.000  0.000
       0.000  0.000  1.000
     occupation matrix ns (before diag.):
       0.167  0.000  0.000
       0.000  0.167  0.000
       0.000  0.000  0.167
     ------------------------ ATOM  109 ------------------------
     Tr[ns(109)] =   3.00000
     eigenvalues:
       0.500  0.500  0.500
     eigenvectors (columns):
       1.000  0.000  0.000
       0.000  1.000  0.000
       0.000  0.000  1.000
     occupation matrix ns (before diag.):
       0.500  0.000  0.000
       0.000  0.500  0.000
       0.000  0.000  0.500
     ------------------------ ATOM  110 ------------------------
     Tr[ns(110)] =   3.00000
     eigenvalues:
       0.500  0.500  0.500
     eigenvectors (columns):
       1.000  0.000  0.000
       0.000  1.000  0.000
       0.000  0.000  1.000
     occupation matrix ns (before diag.):
       0.500  0.000  0.000
       0.000  0.500  0.000
       0.000  0.000  0.500
     ------------------------ ATOM  111 ------------------------
     Tr[ns(111)] =   3.00000
     eigenvalues:
       0.500  0.500  0.500
     eigenvectors (columns):
       1.000  0.000  0.000
       0.000  1.000  0.000
       0.000  0.000  1.000
     occupation matrix ns (before diag.):
       0.500  0.000  0.000
       0.000  0.500  0.000
       0.000  0.000  0.500
     ------------------------ ATOM  112 ------------------------
     Tr[ns(112)] =   3.00000
     eigenvalues:
       0.500  0.500  0.500
     eigenvectors (columns):
       1.000  0.000  0.000
       0.000  1.000  0.000
       0.000  0.000  1.000
     occupation matrix ns (before diag.):
       0.500  0.000  0.000
       0.000  0.500  0.000
       0.000  0.000  0.500
     ------------------------ ATOM  113 ------------------------
     Tr[ns(113)] =   1.00000
     eigenvalues:
       0.167  0.167  0.167
     eigenvectors (columns):
       1.000  0.000  0.000
       0.000  1.000  0.000
       0.000  0.000  1.000
     occupation matrix ns (before diag.):
       0.167  0.000  0.000
       0.000  0.167  0.000
       0.000  0.000  0.167
     ------------------------ ATOM  114 ------------------------
     Tr[ns(114)] =   1.00000
     eigenvalues:
       0.167  0.167  0.167
     eigenvectors (columns):
       1.000  0.000  0.000
       0.000  1.000  0.000
       0.000  0.000  1.000
     occupation matrix ns (before diag.):
       0.167  0.000  0.000
       0.000  0.167  0.000
       0.000  0.000  0.167
     ------------------------ ATOM  115 ------------------------
     Tr[ns(115)] =   1.00000
     eigenvalues:
       0.167  0.167  0.167
     eigenvectors (columns):
       1.000  0.000  0.000
       0.000  1.000  0.000
       0.000  0.000  1.000
     occupation matrix ns (before diag.):
       0.167  0.000  0.000
       0.000  0.167  0.000
       0.000  0.000  0.167
     ------------------------ ATOM  116 ------------------------
     Tr[ns(116)] =   1.00000
     eigenvalues:
       0.167  0.167  0.167
     eigenvectors (columns):
       1.000  0.000  0.000
       0.000  1.000  0.000
       0.000  0.000  1.000
     occupation matrix ns (before diag.):
       0.167  0.000  0.000
       0.000  0.167  0.000
       0.000  0.000  0.167
     ------------------------ ATOM  117 ------------------------
     Tr[ns(117)] =   3.00000
     eigenvalues:
       0.500  0.500  0.500
     eigenvectors (columns):
       1.000  0.000  0.000
       0.000  1.000  0.000
       0.000  0.000  1.000
     occupation matrix ns (before diag.):
       0.500  0.000  0.000
       0.000  0.500  0.000
       0.000  0.000  0.500
     ------------------------ ATOM  118 ------------------------
     Tr[ns(118)] =   3.00000
     eigenvalues:
       0.500  0.500  0.500
     eigenvectors (columns):
       1.000  0.000  0.000
       0.000  1.000  0.000
       0.000  0.000  1.000
     occupation matrix ns (before diag.):
       0.500  0.000  0.000
       0.000  0.500  0.000
       0.000  0.000  0.500
     ------------------------ ATOM  119 ------------------------
     Tr[ns(119)] =   3.00000
     eigenvalues:
       0.500  0.500  0.500
     eigenvectors (columns):
       1.000  0.000  0.000
       0.000  1.000  0.000
       0.000  0.000  1.000
     occupation matrix ns (before diag.):
       0.500  0.000  0.000
       0.000  0.500  0.000
       0.000  0.000  0.500
     ------------------------ ATOM  120 ------------------------
     Tr[ns(120)] =   3.00000
     eigenvalues:
       0.500  0.500  0.500
     eigenvectors (columns):
       1.000  0.000  0.000
       0.000  1.000  0.000
       0.000  0.000  1.000
     occupation matrix ns (before diag.):
       0.500  0.000  0.000
       0.000  0.500  0.000
       0.000  0.000  0.500
     ------------------------ ATOM  121 ------------------------
     Tr[ns(121)] =   1.00000
     eigenvalues:
       0.167  0.167  0.167
     eigenvectors (columns):
       1.000  0.000  0.000
       0.000  1.000  0.000
       0.000  0.000  1.000
     occupation matrix ns (before diag.):
       0.167  0.000  0.000
       0.000  0.167  0.000
       0.000  0.000  0.167
     ------------------------ ATOM  122 ------------------------
     Tr[ns(122)] =   1.00000
     eigenvalues:
       0.167  0.167  0.167
     eigenvectors (columns):
       1.000  0.000  0.000
       0.000  1.000  0.000
       0.000  0.000  1.000
     occupation matrix ns (before diag.):
       0.167  0.000  0.000
       0.000  0.167  0.000
       0.000  0.000  0.167
     ------------------------ ATOM  123 ------------------------
     Tr[ns(123)] =   1.00000
     eigenvalues:
       0.167  0.167  0.167
     eigenvectors (columns):
       1.000  0.000  0.000
       0.000  1.000  0.000
       0.000  0.000  1.000
     occupation matrix ns (before diag.):
       0.167  0.000  0.000
       0.000  0.167  0.000
       0.000  0.000  0.167
     ------------------------ ATOM  124 ------------------------
     Tr[ns(124)] =   1.00000
     eigenvalues:
       0.167  0.167  0.167
     eigenvectors (columns):
       1.000  0.000  0.000
       0.000  1.000  0.000
       0.000  0.000  1.000
     occupation matrix ns (before diag.):
       0.167  0.000  0.000
       0.000  0.167  0.000
       0.000  0.000  0.167
     ------------------------ ATOM  125 ------------------------
     Tr[ns(125)] =   3.00000
     eigenvalues:
       0.500  0.500  0.500
     eigenvectors (columns):
       1.000  0.000  0.000
       0.000  1.000  0.000
       0.000  0.000  1.000
     occupation matrix ns (before diag.):
       0.500  0.000  0.000
       0.000  0.500  0.000
       0.000  0.000  0.500
     ------------------------ ATOM  126 ------------------------
     Tr[ns(126)] =   3.00000
     eigenvalues:
       0.500  0.500  0.500
     eigenvectors (columns):
       1.000  0.000  0.000
       0.000  1.000  0.000
       0.000  0.000  1.000
     occupation matrix ns (before diag.):
       0.500  0.000  0.000
       0.000  0.500  0.000
       0.000  0.000  0.500
     ------------------------ ATOM  127 ------------------------
     Tr[ns(127)] =   3.00000
     eigenvalues:
       0.500  0.500  0.500
     eigenvectors (columns):
       1.000  0.000  0.000
       0.000  1.000  0.000
       0.000  0.000  1.000
     occupation matrix ns (before diag.):
       0.500  0.000  0.000
       0.000  0.500  0.000
       0.000  0.000  0.500
     ------------------------ ATOM  128 ------------------------
     Tr[ns(128)] =   3.00000
     eigenvalues:
       0.500  0.500  0.500
     eigenvectors (columns):
       1.000  0.000  0.000
       0.000  1.000  0.000
       0.000  0.000  1.000
     occupation matrix ns (before diag.):
       0.500  0.000  0.000
       0.000  0.500  0.000
       0.000  0.000  0.500
     ------------------------ ATOM  129 ------------------------
     Tr[ns(129)] =   1.00000
     eigenvalues:
       0.167  0.167  0.167
     eigenvectors (columns):
       1.000  0.000  0.000
       0.000  1.000  0.000
       0.000  0.000  1.000
     occupation matrix ns (before diag.):
       0.167  0.000  0.000
       0.000  0.167  0.000
       0.000  0.000  0.167
     ------------------------ ATOM  130 ------------------------
     Tr[ns(130)] =   1.00000
     eigenvalues:
       0.167  0.167  0.167
     eigenvectors (columns):
       1.000  0.000  0.000
       0.000  1.000  0.000
       0.000  0.000  1.000
     occupation matrix ns (before diag.):
       0.167  0.000  0.000
       0.000  0.167  0.000
       0.000  0.000  0.167
     ------------------------ ATOM  131 ------------------------
     Tr[ns(131)] =   1.00000
     eigenvalues:
       0.167  0.167  0.167
     eigenvectors (columns):
       1.000  0.000  0.000
       0.000  1.000  0.000
       0.000  0.000  1.000
     occupation matrix ns (before diag.):
       0.167  0.000  0.000
       0.000  0.167  0.000
       0.000  0.000  0.167
     ------------------------ ATOM  132 ------------------------
     Tr[ns(132)] =   1.00000
     eigenvalues:
       0.167  0.167  0.167
     eigenvectors (columns):
       1.000  0.000  0.000
       0.000  1.000  0.000
       0.000  0.000  1.000
     occupation matrix ns (before diag.):
       0.167  0.000  0.000
       0.000  0.167  0.000
       0.000  0.000  0.167
     ------------------------ ATOM  133 ------------------------
     Tr[ns(133)] =   3.00000
     eigenvalues:
       0.500  0.500  0.500
     eigenvectors (columns):
       1.000  0.000  0.000
       0.000  1.000  0.000
       0.000  0.000  1.000
     occupation matrix ns (before diag.):
       0.500  0.000  0.000
       0.000  0.500  0.000
       0.000  0.000  0.500
     ------------------------ ATOM  134 ------------------------
     Tr[ns(134)] =   3.00000
     eigenvalues:
       0.500  0.500  0.500
     eigenvectors (columns):
       1.000  0.000  0.000
       0.000  1.000  0.000
       0.000  0.000  1.000
     occupation matrix ns (before diag.):
       0.500  0.000  0.000
       0.000  0.500  0.000
       0.000  0.000  0.500
     ------------------------ ATOM  135 ------------------------
     Tr[ns(135)] =   3.00000
     eigenvalues:
       0.500  0.500  0.500
     eigenvectors (columns):
       1.000  0.000  0.000
       0.000  1.000  0.000
       0.000  0.000  1.000
     occupation matrix ns (before diag.):
       0.500  0.000  0.000
       0.000  0.500  0.000
       0.000  0.000  0.500
     ------------------------ ATOM  136 ------------------------
     Tr[ns(136)] =   3.00000
     eigenvalues:
       0.500  0.500  0.500
     eigenvectors (columns):
       1.000  0.000  0.000
       0.000  1.000  0.000
       0.000  0.000  1.000
     occupation matrix ns (before diag.):
       0.500  0.000  0.000
       0.000  0.500  0.000
       0.000  0.000  0.500
     ------------------------ ATOM  137 ------------------------
     Tr[ns(137)] =   1.00000
     eigenvalues:
       0.167  0.167  0.167
     eigenvectors (columns):
       1.000  0.000  0.000
       0.000  1.000  0.000
       0.000  0.000  1.000
     occupation matrix ns (before diag.):
       0.167  0.000  0.000
       0.000  0.167  0.000
       0.000  0.000  0.167
     ------------------------ ATOM  138 ------------------------
     Tr[ns(138)] =   1.00000
     eigenvalues:
       0.167  0.167  0.167
     eigenvectors (columns):
       1.000  0.000  0.000
       0.000  1.000  0.000
       0.000  0.000  1.000
     occupation matrix ns (before diag.):
       0.167  0.000  0.000
       0.000  0.167  0.000
       0.000  0.000  0.167
     ------------------------ ATOM  139 ------------------------
     Tr[ns(139)] =   1.00000
     eigenvalues:
       0.167  0.167  0.167
     eigenvectors (columns):
       1.000  0.000  0.000
       0.000  1.000  0.000
       0.000  0.000  1.000
     occupation matrix ns (before diag.):
       0.167  0.000  0.000
       0.000  0.167  0.000
       0.000  0.000  0.167
     ------------------------ ATOM  140 ------------------------
     Tr[ns(140)] =   1.00000
     eigenvalues:
       0.167  0.167  0.167
     eigenvectors (columns):
       1.000  0.000  0.000
       0.000  1.000  0.000
       0.000  0.000  1.000
     occupation matrix ns (before diag.):
       0.167  0.000  0.000
       0.000  0.167  0.000
       0.000  0.000  0.167
     ------------------------ ATOM  141 ------------------------
     Tr[ns(141)] =   3.00000
     eigenvalues:
       0.500  0.500  0.500
     eigenvectors (columns):
       1.000  0.000  0.000
       0.000  1.000  0.000
       0.000  0.000  1.000
     occupation matrix ns (before diag.):
       0.500  0.000  0.000
       0.000  0.500  0.000
       0.000  0.000  0.500
     ------------------------ ATOM  142 ------------------------
     Tr[ns(142)] =   3.00000
     eigenvalues:
       0.500  0.500  0.500
     eigenvectors (columns):
       1.000  0.000  0.000
       0.000  1.000  0.000
       0.000  0.000  1.000
     occupation matrix ns (before diag.):
       0.500  0.000  0.000
       0.000  0.500  0.000
       0.000  0.000  0.500
     ------------------------ ATOM  143 ------------------------
     Tr[ns(143)] =   3.00000
     eigenvalues:
       0.500  0.500  0.500
     eigenvectors (columns):
       1.000  0.000  0.000
       0.000  1.000  0.000
       0.000  0.000  1.000
     occupation matrix ns (before diag.):
       0.500  0.000  0.000
       0.000  0.500  0.000
       0.000  0.000  0.500
     ------------------------ ATOM  144 ------------------------
     Tr[ns(144)] =   3.00000
     eigenvalues:
       0.500  0.500  0.500
     eigenvectors (columns):
       1.000  0.000  0.000
       0.000  1.000  0.000
       0.000  0.000  1.000
     occupation matrix ns (before diag.):
       0.500  0.000  0.000
       0.000  0.500  0.000
       0.000  0.000  0.500
     ------------------------ ATOM  145 ------------------------
     Tr[ns(145)] =   1.00000
     eigenvalues:
       0.167  0.167  0.167
     eigenvectors (columns):
       1.000  0.000  0.000
       0.000  1.000  0.000
       0.000  0.000  1.000
     occupation matrix ns (before diag.):
       0.167  0.000  0.000
       0.000  0.167  0.000
       0.000  0.000  0.167
     ------------------------ ATOM  146 ------------------------
     Tr[ns(146)] =   1.00000
     eigenvalues:
       0.167  0.167  0.167
     eigenvectors (columns):
       1.000  0.000  0.000
       0.000  1.000  0.000
       0.000  0.000  1.000
     occupation matrix ns (before diag.):
       0.167  0.000  0.000
       0.000  0.167  0.000
       0.000  0.000  0.167
     ------------------------ ATOM  147 ------------------------
     Tr[ns(147)] =   1.00000
     eigenvalues:
       0.167  0.167  0.167
     eigenvectors (columns):
       1.000  0.000  0.000
       0.000  1.000  0.000
       0.000  0.000  1.000
     occupation matrix ns (before diag.):
       0.167  0.000  0.000
       0.000  0.167  0.000
       0.000  0.000  0.167
     ------------------------ ATOM  148 ------------------------
     Tr[ns(148)] =   1.00000
     eigenvalues:
       0.167  0.167  0.167
     eigenvectors (columns):
       1.000  0.000  0.000
       0.000  1.000  0.000
       0.000  0.000  1.000
     occupation matrix ns (before diag.):
       0.167  0.000  0.000
       0.000  0.167  0.000
       0.000  0.000  0.167
     ------------------------ ATOM  149 ------------------------
     Tr[ns(149)] =   3.00000
     eigenvalues:
       0.500  0.500  0.500
     eigenvectors (columns):
       1.000  0.000  0.000
       0.000  1.000  0.000
       0.000  0.000  1.000
     occupation matrix ns (before diag.):
       0.500  0.000  0.000
       0.000  0.500  0.000
       0.000  0.000  0.500
     ------------------------ ATOM  150 ------------------------
     Tr[ns(150)] =   3.00000
     eigenvalues:
       0.500  0.500  0.500
     eigenvectors (columns):
       1.000  0.000  0.000
       0.000  1.000  0.000
       0.000  0.000  1.000
     occupation matrix ns (before diag.):
       0.500  0.000  0.000
       0.000  0.500  0.000
       0.000  0.000  0.500
     ------------------------ ATOM  151 ------------------------
     Tr[ns(151)] =   3.00000
     eigenvalues:
       0.500  0.500  0.500
     eigenvectors (columns):
       1.000  0.000  0.000
       0.000  1.000  0.000
       0.000  0.000  1.000
     occupation matrix ns (before diag.):
       0.500  0.000  0.000
       0.000  0.500  0.000
       0.000  0.000  0.500
     ------------------------ ATOM  152 ------------------------
[...]
   -20.4005 -20.3998 -20.3996 -20.3991 -20.3987 -20.3984 -20.3982 -20.3977
   -20.3973 -20.3965 -20.3962 -20.3957 -20.3957 -20.3956 -20.3955 -20.3954
   -20.3954 -20.3953 -20.3950 -20.3950 -20.3949 -20.3946 -20.3945 -20.3942
   -20.3941 -20.3937 -20.3932 -20.3929 -20.3929 -20.3927 -20.3927 -20.3927
   -20.3923 -20.3922 -20.3921 -20.3921 -20.3920 -20.3919 -20.3919 -20.3911
   -20.3909 -20.3908 -20.3905 -20.3903 -20.3903 -20.3899 -20.3898 -20.3897
   -20.3894 -20.3894 -20.3892 -20.3892 -20.3892 -20.3892 -20.3891 -20.3888
   -20.3887 -20.3886 -20.3885 -20.3883 -20.3882 -20.3881 -20.3880 -20.3878
   -20.3878 -20.3876 -20.3874 -20.3874 -20.3874 -20.3873 -20.3871 -20.3871
   -20.3869 -20.3868 -20.3867 -20.3866 -20.3864 -20.3864 -20.3862 -20.3860
   -20.3858 -20.3858 -20.3858 -20.3853 -20.3853 -20.3852 -20.3851 -20.3848
   -20.3843 -20.3843 -20.3839 -20.3838 -20.3834 -20.3832 -20.3830 -20.3826
   -20.3823 -20.3819 -20.3819 -20.3818 -20.3817 -20.3815 -20.3814 -20.3814
   -20.3813 -20.3811 -20.3809 -20.3808 -20.3805 -20.3803 -20.3799 -20.3798
   -20.3792 -20.3782 -20.3780 -20.3779 -20.3777 -20.3772 -20.3772 -20.3764
   -20.3763 -20.3762 -20.3762 -20.3761 -20.3759 -20.3759 -20.3758 -20.3757
   -20.3756 -20.3752 -20.3750 -20.3750 -20.3740 -20.3738 -20.3736 -20.3732
   -20.3732 -20.3727 -20.3726 -20.3725 -20.3724 -20.3723 -20.3723 -20.3721
   -20.3721 -20.3717 -20.3716 -20.3710 -20.3708 -20.3704 -20.3703 -20.3695
   -20.3694 -20.3692 -20.3688 -20.3687 -20.3682 -20.3676 -20.3673 -20.3671
   -20.3668 -20.3666 -20.3662 -20.3662 -20.3657 -20.3655 -20.3652 -20.3652
   -20.3650 -20.3647 -20.3645 -20.3642 -20.3637 -20.3636 -20.3630 -20.3628
   -20.3619 -20.3615 -20.3609 -20.3606 -20.3604 -20.3599 -20.3596 -20.3588
   -20.3587 -20.3585 -20.3584 -20.3579 -20.3573 -20.3571 -20.3568 -20.3555
   -20.3554 -20.3552 -20.3544 -20.3539 -20.3534 -20.3515 -20.3460 -20.3454
   -20.3453 -20.3437 -20.3412 -20.3386  -7.3552  -7.3539  -7.3477  -7.3469
    -7.3438  -7.3427  -7.3412  -7.3409  -7.3396  -7.3392  -7.3371  -7.3359
    -7.3352  -7.3345  -7.3335  -7.3329  -7.3318  -7.3314  -7.3308  -7.3305
    -7.3296  -7.3287  -7.3282  -7.3275  -7.3268  -7.3262  -7.3253  -7.3241
    -7.3239  -7.3225  -7.3209  -7.3202  -7.3186  -7.3167  -7.3153  -7.3150
    -7.3145  -7.3133  -7.3119  -7.3092  -7.3067  -7.3057  -7.3036  -7.3003
    -7.3002  -7.2987  -7.2980  -7.2971  -7.2969  -7.2955  -7.2946  -7.2933
    -7.2925  -7.2905  -7.2902  -7.2898  -7.2890  -7.2865  -7.2826  -7.2815
    -7.2797  -7.2786  -7.2780  -7.2767  -7.2753  -7.2744  -7.2739  -7.2733
    -7.2726  -7.2718  -7.2707  -7.2703  -7.2695  -7.2687  -7.2685  -7.2682
    -7.2669  -7.2663  -7.2662  -7.2655  -7.2652  -7.2646  -7.2641  -7.2635
    -7.2626  -7.2616  -7.2611  -7.2606  -7.2599  -7.2595  -7.2592  -7.2589
    -7.2578  -7.2568  -7.2566  -7.2561  -7.2551  -7.2547  -7.2545  -7.2543
    -7.2531  -7.2529  -7.2518  -7.2510  -7.2505  -7.2500  -7.2496  -7.2487
    -7.2483  -7.2476  -7.2476  -7.2472  -7.2460  -7.2456  -7.2453  -7.2446
    -7.2438  -7.2430  -7.2424  -7.2415  -7.2411  -7.2404  -7.2403  -7.2399
    -7.2394  -7.2393  -7.2390  -7.2386  -7.2384  -7.2383  -7.2376  -7.2372
    -7.2366  -7.2361  -7.2356  -7.2353  -7.2349  -7.2346  -7.2344  -7.2338
    -7.2336  -7.2329  -7.2323  -7.2321  -7.2315  -7.2312  -7.2307  -7.2301
    -7.2301  -7.2294  -7.2289  -7.2287  -7.2286  -7.2277  -7.2275  -7.2271
    -7.2267  -7.2258  -7.2255  -7.2251  -7.2247  -7.2240  -7.2233  -7.2230
    -7.2227  -7.2224  -7.2219  -7.2218  -7.2212  -7.2208  -7.2201  -7.2197
    -7.2192  -7.2189  -7.2187  -7.2180  -7.2178  -7.2175  -7.2169  -7.2164
    -7.2163  -7.2161  -7.2150  -7.2149  -7.2147  -7.2145  -7.2142  -7.2141
    -7.2133  -7.2128  -7.2128  -7.2126  -7.2118  -7.2116  -7.2112  -7.2106
    -7.2101  -7.2095  -7.2094  -7.2089  -7.2087  -7.2085  -7.2082  -7.2075
    -7.2072  -7.2069  -7.2064  -7.2061  -7.2057  -7.2052  -7.2051  -7.2043
    -7.2042  -7.2038  -7.2034  -7.2034  -7.2023  -7.2021  -7.2020  -7.2013
    -7.2009  -7.2004  -7.2001  -7.1996  -7.1991  -7.1988  -7.1984  -7.1979
    -7.1974  -7.1972  -7.1967  -7.1965  -7.1959  -7.1957  -7.1953  -7.1946
    -7.1946  -7.1941  -7.1936  -7.1935  -7.1931  -7.1927  -7.1920  -7.1914
    -7.1912  -7.1908  -7.1906  -7.1900  -7.1896  -7.1895  -7.1894  -7.1886
    -7.1879  -7.1879  -7.1872  -7.1870  -7.1863  -7.1860  -7.1858  -7.1853
    -7.1849  -7.1845  -7.1840  -7.1838  -7.1832  -7.1829  -7.1826  -7.1820
    -7.1818  -7.1816  -7.1814  -7.1811  -7.1809  -7.1803  -7.1802  -7.1797
    -7.1794  -7.1791  -7.1789  -7.1787  -7.1783  -7.1781  -7.1777  -7.1771
    -7.1767  -7.1763  -7.1758  -7.1755  -7.1755  -7.1748  -7.1747  -7.1741
    -7.1737  -7.1734  -7.1731  -7.1724  -7.1723  -7.1718  -7.1715  -7.1710
    -7.1708  -7.1706  -7.1700  -7.1698  -7.1691  -7.1686  -7.1685  -7.1683
    -7.1678  -7.1675  -7.1675  -7.1671  -7.1667  -7.1664  -7.1661  -7.1656
    -7.1651  -7.1647  -7.1644  -7.1640  -7.1639  -7.1635  -7.1630  -7.1626
    -7.1624  -7.1623  -7.1617  -7.1612  -7.1611  -7.1608  -7.1607  -7.1604
    -7.1600  -7.1599  -7.1596  -7.1592  -7.1589  -7.1586  -7.1584  -7.1579
    -7.1576  -7.1572  -7.1569  -7.1567  -7.1565  -7.1561  -7.1559  -7.1556
    -7.1551  -7.1546  -7.1545  -7.1539  -7.1538  -7.1535  -7.1529  -7.1527
    -7.1520  -7.1518  -7.1513  -7.1512  -7.1507  -7.1504  -7.1499  -7.1496
    -7.1496  -7.1488  -7.1487  -7.1485  -7.1481  -7.1480  -7.1478  -7.1475
    -7.1470  -7.1465  -7.1464  -7.1460  -7.1456  -7.1454  -7.1452  -7.1446
    -7.1443  -7.1439  -7.1437  -7.1432  -7.1431  -7.1427  -7.1425  -7.1422
    -7.1420  -7.1417  -7.1415  -7.1412  -7.1408  -7.1405  -7.1405  -7.1400
    -7.1395  -7.1394  -7.1388  -7.1384  -7.1383  -7.1382  -7.1377  -7.1375
    -7.1370  -7.1367  -7.1364  -7.1360  -7.1353  -7.1348  -7.1346  -7.1342
    -7.1334  -7.1328  -7.1328  -7.1322  -7.1318  -7.1312  -7.1303  -7.1300
    -7.1295  -7.1290  -7.1286  -7.1281  -7.1275  -7.1272  -7.1269  -7.1265
    -7.1263  -7.1257  -7.1254  -7.1250  -7.1243  -7.1239  -7.1238  -7.1233
    -7.1229  -7.1227  -7.1224  -7.1215  -7.1211  -7.1207  -7.1203  -7.1199
    -7.1196  -7.1189  -7.1187  -7.1178  -7.1172  -7.1171  -7.1170  -7.1167
    -7.1155  -7.1150  -7.1142  -7.1140  -7.1134  -7.1128  -7.1123  -7.1120
    -7.1113  -7.1107  -7.1104  -7.1100  -7.1097  -7.1087  -7.1085  -7.1078
    -7.1073  -7.1066  -7.1064  -7.1057  -7.1051  -7.1049  -7.1039  -7.1038
    -7.1037  -7.1033  -7.1024  -7.1021  -7.1019  -7.1013  -7.1011  -7.1004
    -7.0991  -7.0991  -7.0988  -7.0983  -7.0982  -7.0978  -7.0973  -7.0957
    -7.0950  -7.0937  -7.0929  -7.0926  -7.0912  -7.0907  -7.0896  -7.0878
    -7.0875  -7.0871  -7.0869  -7.0863  -7.0849  -7.0840  -7.0836  -7.0831
    -7.0823  -7.0814  -7.0812  -7.0809  -7.0802  -7.0798  -7.0796  -7.0790
    -7.0787  -7.0783  -7.0772  -7.0761  -7.0751  -7.0746  -7.0741  -7.0728
    -7.0726  -7.0721  -7.0703  -7.0700  -7.0663  -7.0661  -7.0655  -7.0648
    -7.0640  -7.0633  -7.0628  -7.0620  -7.0484  -7.0447  -7.0428  -7.0361
    -3.5620  -3.5527  -3.5040  -3.4197  -3.3588  -3.3193  -3.2952  -3.2213
    -3.2022  -3.1891  -3.1593  -3.1407  -3.1299  -3.0608  -3.0197  -3.0163
    -2.9598  -2.9102  -2.8882  -2.8798  -2.8430  -2.8392  -2.8255  -2.8133
    -2.7809  -2.7643  -2.7346  -2.6978  -2.6816  -2.6556  -2.6424  -2.6345
    -2.6114  -2.5852  -2.5528  -2.5379  -2.5290  -2.5155  -2.4940  -2.4902
    -2.4566  -2.4506  -2.4174  -2.4109  -2.3963  -2.3615  -2.3416  -2.3378
    -2.3048  -2.2882  -2.2564  -2.2322  -2.2242  -2.2065  -2.0885  -2.0265
    -2.0139  -1.9839  -1.9130  -1.9003  -1.8477  -1.7749  -1.7522  -1.7376
    -1.7063  -1.6833  -1.6599  -1.6368  -1.6068  -1.5967  -1.5589  -1.5319
    -1.5127  -1.5010  -1.4720  -1.4501  -1.4276  -1.4094  -1.3947  -1.3716
    -1.3578  -1.3450  -1.3171  -1.2985  -1.2741  -1.2439  -1.2088  -1.2002
    -1.1883  -1.1628  -1.1241  -1.1121  -1.1005  -1.0845  -1.0637  -1.0308
    -1.0236  -1.0065  -0.9813  -0.9566  -0.9388  -0.9222  -0.9075  -0.8772
    -0.8478  -0.8204  -0.7654  -0.7026   0.5256   0.5340   0.5474   0.5875
     0.7536   0.7729   0.7753   0.7824   0.7934   0.7992   0.8067   0.8137
     0.8195   0.8274   0.8360   0.8429   0.8445   0.8544   0.8583   0.8649
     0.8672   0.8734   0.8832   0.8879   0.8893   0.8959   0.9008   0.9117
     0.9129   0.9199   0.9271   0.9308   0.9452   0.9507   0.9530   0.9658
     0.9671   0.9753   0.9811   0.9851   0.9903   0.9933   1.0024   1.0105
     1.0213   1.0347   1.0370   1.0385   1.0533   1.0629   1.0721   1.0828
     1.0885   1.1028   1.1090   1.1097   1.1196   1.1378   1.1406   1.1571
     1.6212   1.6403   1.6747   1.6792   1.6921   1.6998   1.7344   1.7708
     1.7801   1.8013   1.8170   1.8715   1.8907   1.8953   1.9214   1.9312
     1.9391   1.9840   1.9885   1.9978   2.0214   2.0462   2.0603   2.0722
     2.0845   2.1133   2.1326   2.1382   2.7999   2.8780   2.9036   2.9288
     2.9653   2.9931   3.0364   3.0763   3.4150   3.4259   3.4413   3.4536
     3.4677   3.4745   3.4854   3.4921   3.5110   3.5282   3.5443   3.5462
     3.5522   3.5677   3.5931   3.6144   3.6744   3.6780   3.6911   3.7022
     3.7105   3.7170   3.7239   3.7306   3.7343   3.7359   3.7538   3.7557
     3.7747   3.7881   3.8002   3.8171   3.8338   3.8455   3.8549   3.8755
     3.9127   3.9181   3.9244   3.9315   3.9492   3.9749   3.9837   3.9887
     3.9954   4.0029   4.0040   4.0122   4.0183   4.0245   4.0400   4.0469
     4.0612   4.0809   4.0939   4.1207   4.3218   4.3394   4.3628   4.3758
     4.3920   4.4109   4.4194   4.4308   4.4677   4.4779   4.4931   4.4995
     4.5110   4.5194   4.5249   4.5304   4.5372   4.5461   4.5546   4.5700
     4.5742   4.5786   4.5877   4.5973   4.6102   4.6159   4.6192   4.6259
     4.6492   4.6661   4.6749   4.6834   4.6919   4.7319   4.7411   4.7577
     4.7737   4.7758   4.8040   4.8111   4.8225   4.8379   4.8458   4.8479
     4.8583   4.8707   4.8797   4.8938   4.8988   4.9016   4.9196   4.9344
     4.9415   4.9509   4.9643   4.9727   4.9790   4.9827   4.9937   5.0147
     5.0196   5.0279   5.0338   5.0459   5.0514   5.0608   5.0741   5.0796
     5.0984   5.1165   5.1251   5.1418   5.1462   5.1639   5.1721   5.1802
     5.1935   5.2091   5.2152   5.2219   5.2263   5.2302   5.2469   5.2624
     5.2769   5.2880   5.3008   5.3025   5.3419   5.3497   5.3551   5.3718
     5.3801   5.3876   5.3920   5.4169   5.4264   5.4389   5.4522   5.4637
     5.4676   5.4736   5.4880   5.4959   5.5042   5.5276   5.5324   5.5429
     5.5601   5.5755   5.5893   5.6032   5.6655   5.7033   5.7191   5.7213
     5.7388   5.7697   5.7816   5.7921   5.8036   5.8238   5.8400   5.8483
     5.8614   5.8776   5.8853   5.9002   5.9275   5.9365   5.9436   5.9526
     5.9750   5.9867   6.0007   6.0138   6.0264   6.0425   6.0588   6.0734
     6.0762   6.0863   6.1002   6.1154   6.1264   6.1483   6.1653   6.1695
     6.1981   6.2045   6.2104   6.2472   6.2765   6.2795   6.2974   6.3044
     6.3160   6.3344   6.3588   6.3655   6.3891   6.4041   6.4366   6.4493
     6.4972   6.5219   6.5346   6.6250   6.8629   6.9503   6.9666   7.0344
     8.4602   8.4846   8.5132   8.5351   8.5739   8.5904   8.6321   8.6706
     8.7183   8.7363   8.8091   8.8482   8.9224   8.9399   8.9499   8.9776
     9.0039   9.0232   9.0817   9.0890   9.1777   9.2115   9.2169   9.2260
     9.2493   9.2527   9.2762   9.3064   9.3200   9.3241   9.3370   9.3442
     9.3598   9.3638   9.3747   9.3792   9.3927   9.3930   9.4079   9.4176
     9.4343   9.4397   9.4445   9.4518   9.4596   9.4795   9.4846   9.4987
     9.5010   9.5097   9.5314   9.5333   9.5457   9.5624   9.5863   9.5923
     9.6051   9.6249   9.6424   9.6507   9.6602   9.6732   9.6862   9.6930
     9.7012   9.7075   9.7131   9.7234   9.7373   9.7444   9.7539   9.7554
     9.7667   9.7703   9.7907   9.7936   9.8046   9.8102   9.8204   9.8266
     9.8369   9.8417   9.8446   9.8541   9.8588   9.8690   9.8749   9.8823
     9.8845   9.8909   9.8965   9.9054   9.9124   9.9255   9.9296   9.9455
     9.9484   9.9596   9.9649   9.9813   9.9846  10.0042  10.0075  10.0131
    10.0322  10.0367  10.0629  10.0792  10.2603  10.3192  10.3430  10.3560
    10.3720  10.3779  10.3916  10.3985  10.4380  10.4560  10.4801  10.5488
    10.5659  10.5781  10.6105  10.6302  10.6478  10.6701  10.6772  10.6925
    10.7035  10.7114  10.7354  10.7452  10.7614  10.7815  10.7996  10.8357
    10.9451  10.9602  10.9765  11.0009  11.0195  11.0262  11.0500  11.0671
    11.0729  11.0950  11.0965  11.1271  11.1749  11.1974  11.2062  11.2115
    11.2703  11.2785  11.2864  11.2951  11.2998  11.3143  11.3210  11.3275
    11.3337  11.3425  11.3448  11.3604  11.3641  11.3763  11.3776  11.3944
    11.3980  11.4063  11.4226  11.4271  11.4505  11.4575  11.4640  11.4736
    11.4816  11.4865  11.4948  11.4969  11.5042  11.5148  11.5168  11.5312
    11.5445  11.5483  11.5507  11.5605  11.5627  11.5807  11.5921  11.6043
    11.6092  11.6165  11.6172  11.6304  11.6377  11.6517  11.6581  11.6748
    11.6808  11.6961  11.7012  11.7180  11.7246  11.7303  11.7522  11.7600
    11.7699  11.7764  11.8082  11.8300  11.9046  11.9096  11.9218  11.9257
    11.9368  11.9417  11.9570  11.9622  11.9660  11.9812  11.9920  11.9965
    12.0164  12.0252  12.0392  12.0521  12.0531  12.0676  12.0871  12.0991
    12.1196  12.1265  12.1350  12.1411  12.1507  12.1546  12.1700  12.1727
    12.1907  12.1954  12.2069  12.2084  12.2299  12.2390  12.2570  12.2656
    12.2893  12.2999  12.3123  12.3261  12.3561  12.3585  12.3643  12.3816
    12.3881  12.4033  12.4208  12.4273  12.4347  12.4464  12.4507  12.4563
    12.4631  12.4740  12.4832  12.4911  12.4978  12.5101  12.5147  12.5268
    12.5440  12.5616  12.5699  12.5788  12.6098  12.6216  12.6252  12.6390
    12.6469  12.6620  12.6694  12.6855  12.7014  12.7075  12.7200  12.7488
    12.7652  12.7691  12.7803  12.7906  12.8064  12.8083  12.8156  12.8268
    12.8302  12.8443  12.8485  12.8610  12.8690  12.8775  12.8904  12.8956
    12.9069  12.9145  12.9175  12.9257  12.9304  12.9341  12.9377  12.9559
    12.9575  12.9605  12.9711  12.9760  12.9804  12.9884  13.0057  13.0129
    13.0184  13.0199  13.0254  13.0385  13.0548  13.0618  13.0740  13.0750
    13.0886  13.0957  13.1091  13.1116  13.1266  13.1334  13.1415  13.1479
    13.1537  13.1735  13.1809  13.1884  13.2110  13.2296  13.2471  13.2556
    13.2762  13.2996  13.3044  13.3168  13.3338  13.3481  13.3612  13.3775
    13.6887  13.7090  13.7189  13.7298  13.7443  13.7574  13.7609  13.7641
    13.7857  13.7872  13.8146  13.8345  13.8438  13.8589  13.8645  13.8933
    13.9046  13.9291  13.9374  13.9514  13.9562  13.9665  13.9775  13.9927
    13.9997  14.0139  14.0319  14.0357  14.0488  14.0587  14.0900  14.0926
    14.1346  14.1679  14.1981  14.2150  14.2180  14.2363  14.2664  14.2772
    14.2935  14.3103  14.3166  14.3293  14.3534  14.3582  14.3639  14.3893
    14.3934  14.3950  14.4125  14.4215  14.4411  14.4427  14.4531  14.4706
    14.4890  14.5012  14.5116  14.5267  14.5350  14.5659  14.5717  14.5769
    14.6007  14.6166  14.6581  14.6793  14.6878  14.7187  14.7329  14.7384
    14.7560  14.7694  14.7828  14.7955  14.8068  14.8234  14.8332  14.8502
    14.8800  14.8901  14.9354  14.9503  14.9651  15.0169  15.0367  15.0651
    15.0690  15.0934  15.1015  15.1118  15.1227  15.1455  15.1502  15.1591
    15.1877  15.2051  15.2125  15.2205  15.2290  15.2482  15.2513  15.2609
    15.2693  15.2724  15.2840  15.2910  15.2930  15.2998  15.3118  15.3143
    15.3250  15.3365  15.3466  15.3583  15.3642  15.3687  15.3760  15.3938
    15.4005  15.4034  15.4069  15.4176  15.4334  15.4436  15.4531  15.4559
    15.4582  15.4685  15.4742  15.4795  15.4883  15.4914  15.5059  15.5213
    15.5281  15.5331  15.5563  15.5705  15.5806  15.5840  15.6116  15.6185
    15.6251  15.6383  15.6504  15.6552  15.6645  15.6712  15.6748  15.6881
    15.6926  15.7128  15.7145  15.7244  15.7395  15.7467  15.7531  15.7625
    15.7761  15.7942  15.8002  15.8113  15.8259  15.8326  15.8385  15.8424
    15.8459  15.8543  15.8659  15.8716  15.8856  15.8910  15.9081  15.9115
    15.9262  15.9390  15.9486  15.9501  15.9602  15.9691  15.9748  15.9977
    16.0116  16.0159  16.0455  16.0636  16.0977  16.0995  16.1228  16.1312
    16.1460  16.1542  16.1612  16.1718  16.1796  16.1863  16.1929  16.2003
    16.2126  16.2144  16.2214  16.2246  16.2277  16.2355  16.2439  16.2516
    16.2606  16.2636  16.2762  16.2866  16.3027  16.3082  16.3126  16.3201
    16.3357  16.3417  16.3503  16.3648  16.3707  16.4097  16.4311  16.4584
    16.4728  16.4919  16.5158  16.5381  16.5603  16.5926  16.6072  16.6172
    16.6358  16.6369  16.6440  16.6559  16.6701  16.6742  16.6789  16.6850
    16.6937  16.7087  16.7139  16.7198  16.7370  16.7457  16.7545  16.7560
    16.7624  16.7682  16.7768  16.7940  16.8020  16.8144  16.8334  16.8526
    16.9981  17.0128  17.0169  17.0340  17.0847  17.0906  17.1147  17.1289
    17.1627  17.1740  17.2018  17.2090  17.2447  17.2562  17.2614  17.2814
    17.2904  17.2996  17.3138  17.3227  17.3360  17.3497  17.3661  17.3751
    17.3777  17.3898  17.3941  17.4113  17.4178  17.4245  17.4349  17.4391
    17.4496  17.4531  17.4568  17.4698  17.4797  17.4863  17.4886  17.5021

     highest occupied, lowest unoccupied level (ev):     7.0820    7.2485

!    total energy              =  -35631.66076685 Ry
     estimated scf accuracy    <       0.00000641 Ry

     The total energy is the sum of the following terms:
     one-electron contribution =  -17766.66377098 Ry
     hartree contribution      =   10624.55795448 Ry
     xc contribution           =   -9354.71725699 Ry
     ewald contribution        =  -19137.06039778 Ry
     Hubbard energy            =       2.22270442 Ry

     convergence has been achieved in  12 iterations

     Writing all to output data dir ./tmp_In1.0Ga0.0As0.5Sb0.5_cube_3x3x3.0/In1.0Ga0.0As0.5Sb0.5_cube_3x3x3.0.save/ :
     XML data file, charge density, pseudopotentials, collected wavefunctions

     init_run     :    282.49s CPU    285.43s WALL (       1 calls)
     electrons    :  10695.08s CPU  10721.75s WALL (       1 calls)

     Called by init_run:
     wfcinit      :    271.55s CPU    274.00s WALL (       1 calls)
     potinit      :      2.27s CPU      2.36s WALL (       1 calls)
     hinit0       :      0.73s CPU      0.84s WALL (       1 calls)

     Called by electrons:
     c_bands      :  10271.95s CPU  10296.80s WALL (      13 calls)
     sum_band     :    416.48s CPU    417.17s WALL (      13 calls)
     v_of_rho     :      4.66s CPU      4.97s WALL (      13 calls)
     mix_rho      :      1.05s CPU      1.06s WALL (      13 calls)

     Called by c_bands:
     init_us_2    :     40.18s CPU     40.79s WALL (      28 calls)
     cegterg      :   9891.88s CPU   9915.29s WALL (      13 calls)

     Called by *egterg:
     cdiaghg      :    956.00s CPU    957.04s WALL (     137 calls)
     h_psi        :   6099.16s CPU   6112.32s WALL (     139 calls)
     g_psi        :      5.01s CPU      5.01s WALL (     125 calls)

     Called by h_psi:
     h_psi:calbec :    953.93s CPU    953.99s WALL (     139 calls)
     vloc_psi     :   1143.73s CPU   1146.64s WALL (     139 calls)
     add_vuspsi   :    933.57s CPU    936.43s WALL (     139 calls)
     vhpsi        :   3057.70s CPU   3057.89s WALL (     139 calls)

     General routines
     calbec       :   1206.59s CPU   1206.67s WALL (     292 calls)
     fft          :      2.80s CPU      3.21s WALL (     131 calls)
     ffts         :      0.25s CPU      0.26s WALL (      13 calls)
     fftw         :   1188.69s CPU   1191.55s WALL (  163794 calls)

     Parallel routines

     Hubbard U routines
     new_ns       :     66.76s CPU     66.76s WALL (      13 calls)
     vhpsi        :   3057.70s CPU   3057.89s WALL (     139 calls)

     PWSCF        :      3h 3m CPU      3h 6m WALL


   This run was terminated on:  18:40:54  27Jan2026            

=------------------------------------------------------------------------------=
   JOB DONE.
=------------------------------------------------------------------------------=
