
     Program PWSCF v.7.3.1 starts on 12Jun2025 at 19:55:17 

     This program is part of the open-source Quantum ESPRESSO suite
     for quantum simulation of materials; please cite
         "P. Giannozzi et al., J. Phys.:Condens. Matter 21 395502 (2009);
         "P. Giannozzi et al., J. Phys.:Condens. Matter 29 465901 (2017);
         "P. Giannozzi et al., J. Chem. Phys. 152 154105 (2020);
          URL http://www.quantum-espresso.org", 
     in publications or presentations arising from this work. More details at
     http://www.quantum-espresso.org/quote

     Parallel version (MPI), running on   640 processors

     MPI processes distributed on     5 nodes
     428368 MiB available memory on the printing compute node when the environment starts

     Reading input from In0.0Ga1.0As0.25Sb0.75_cube_3x3x3.2.scf.in
Warning: card &CELL ignored
Warning: card   CELL_DOFREE = 'ALL', ignored
Warning: card / ignored

     Current dimensions of program PWSCF are:
     Max number of different atomic species (ntypx) = 10
     Max number of k-points (npk) =  40000
     Max angular momentum in pseudopotentials (lmaxx) =  4

     K-points division:     npool     =       8
     R & G space division:  proc/nbgrp/npool/nimage =      80
     Subspace diagonalization in iterative solution of the eigenvalue problem:
     one sub-group per band group will be used
     custom distributed-memory algorithm (size of sub-group:  8*  8 procs)


     Parallelization info
     --------------------
     sticks:   dense  smooth     PW     G-vecs:    dense   smooth      PW
     Min         552     552    142                87500    87500   11418
     Max         553     553    143                87509    87509   11423
     Sum       44229   44229  11385              7000505  7000505  913617

     Using Slab Decomposition



     bravais-lattice index     =            1
     lattice parameter (alat)  =      34.0340  a.u.
     unit-cell volume          =   39421.8652 (a.u.)^3
     number of atoms/cell      =          216
     number of atomic types    =            4
     number of electrons       =      3024.00
     number of Kohn-Sham states=         2160
     kinetic-energy cutoff     =     120.0000  Ry
     charge density cutoff     =     480.0000  Ry
     scf convergence threshold =      1.0E-05
     mixing beta               =       0.6500
     number of iterations used =            8  plain     mixing
     Exchange-correlation= PBE
                           (   1   4   3   4   0   0   0)
     Hubbard projectors: atomic
     Hubbard parameters of DFT+U (Dudarev formulation) in eV:
     U(As-4p) =  5.8400
     U(Ga-4p) = -2.3350
     U(In-5p) = -1.0575
     U(Sb-5p) =  4.8900

     Internal variables: lda_plus_u =T, lda_plus_u_kind = 0

     celldm(1)=  34.033953  celldm(2)=   0.000000  celldm(3)=   0.000000
     celldm(4)=   0.000000  celldm(5)=   0.000000  celldm(6)=   0.000000

     crystal axes: (cart. coord. in units of alat)
               a(1) = (   1.000000   0.000000   0.000000 )  
               a(2) = (   0.000000   1.000000   0.000000 )  
               a(3) = (   0.000000   0.000000   1.000000 )  

     reciprocal axes: (cart. coord. in units 2 pi/alat)
               b(1) = (  1.000000  0.000000  0.000000 )  
               b(2) = (  0.000000  1.000000  0.000000 )  
               b(3) = (  0.000000  0.000000  1.000000 )  


     PseudoPot. # 1 for As read from file:
     /work/i254/i254/gentles/data/pseudos/As.pbe.NC-SR.standard.v0.5.UPF
     MD5 check sum: bfe1a874457ce592347346129958e7cf
     Pseudo is Norm-conserving + core correction, Zval = 15.0
     Generated using ONCVPSP code by D. R. Hamann
     Using radial grid of 1358 points,  6 beta functions with: 
                l(1) =   0
                l(2) =   0
                l(3) =   1
                l(4) =   1
                l(5) =   2
                l(6) =   2

     PseudoPot. # 2 for Ga read from file:
     /work/i254/i254/gentles/data/pseudos/Ga.pbe.NC-SR.standard.v0.5.UPF
     MD5 check sum: 2bb81bf6f0a8d9832cf3329850435ecf
     Pseudo is Norm-conserving + core correction, Zval = 13.0
     Generated using ONCVPSP code by D. R. Hamann
     Using radial grid of 1902 points,  6 beta functions with: 
                l(1) =   0
                l(2) =   0
                l(3) =   1
                l(4) =   1
                l(5) =   2
                l(6) =   2

     PseudoPot. # 3 for In read from file:
     /work/i254/i254/gentles/data/pseudos/In.pbe.NC-SR.standard.v0.5.UPF
     MD5 check sum: 835f4bf908c982ff75c88e16816a8d7f
     Pseudo is Norm-conserving + core correction, Zval = 13.0
     Generated using ONCVPSP code by D. R. Hamann
     Using radial grid of 1964 points,  6 beta functions with: 
                l(1) =   0
                l(2) =   0
                l(3) =   1
                l(4) =   1
                l(5) =   2
                l(6) =   2

     PseudoPot. # 4 for Sb read from file:
     /work/i254/i254/gentles/data/pseudos/Sb.pbe.NC-SR.standard.v0.5.UPF
     MD5 check sum: 127f69b6101c45666faeae1b5d611565
     Pseudo is Norm-conserving + core correction, Zval = 15.0
     Generated using ONCVPSP code by D. R. Hamann
     Using radial grid of 1434 points,  6 beta functions with: 
                l(1) =   0
                l(2) =   0
                l(3) =   1
                l(4) =   1
                l(5) =   2
                l(6) =   2

     atomic species   valence    mass     pseudopotential
     As               15.00    74.92160     As( 1.00)
     Ga               13.00    69.72300     Ga( 1.00)
     In               13.00   114.81800     In( 1.00)
     Sb               15.00   121.76000     Sb( 1.00)

     No symmetry found



   Cartesian axes

     site n.     atom                  positions (alat units)
         1        Ga     tau(   1) = (  -0.0038700   0.0055600  -0.0040450  )
         2        Ga     tau(   2) = (  -0.0042390   0.1693200   0.1602020  )
         3        Ga     tau(   3) = (   0.1715570   0.0057080   0.1705240  )
         4        Ga     tau(   4) = (   0.1777050   0.1687920  -0.0006970  )
         5        Sb     tau(   5) = (   0.0864470   0.0866270   0.0805960  )
         6        Sb     tau(   6) = (   0.0859460   0.2463550   0.2465900  )
         7        As     tau(   7) = (   0.2557080   0.0831220   0.2475460  )
         8        As     tau(   8) = (   0.2542570   0.2468950   0.0826860  )
         9        Ga     tau(   9) = (   0.0010190  -0.0010120   0.3337900  )
        10        Ga     tau(  10) = (   0.0009930   0.1665890   0.5006480  )
        11        Ga     tau(  11) = (   0.1675000  -0.0015180   0.4997070  )
        12        Ga     tau(  12) = (   0.1746250   0.1603190   0.3270360  )
        13        Sb     tau(  13) = (   0.0861470   0.0836340   0.4153070  )
        14        Sb     tau(  14) = (   0.0834840   0.2514730   0.5855890  )
        15        Sb     tau(  15) = (   0.2537740   0.0846440   0.5806610  )
        16        Sb     tau(  16) = (   0.2537020   0.2468230   0.4155710  )
        17        Ga     tau(  17) = (  -0.0048100  -0.0063980   0.6734640  )
        18        Ga     tau(  18) = (  -0.0049270   0.1624280   0.8396500  )
        19        Ga     tau(  19) = (   0.1732880   0.0066710   0.8419460  )
        20        Ga     tau(  20) = (   0.1665350   0.1648940   0.6671290  )
        21        Sb     tau(  21) = (   0.0821640   0.0813060   0.7540840  )
        22        Sb     tau(  22) = (   0.0845370   0.2484130   0.9175580  )
        23        As     tau(  23) = (   0.2548290   0.0850980   0.9215540  )
        24        Sb     tau(  24) = (   0.2502870   0.2492960   0.7515130  )
        25        Ga     tau(  25) = (  -0.0051510   0.3273260   0.0025010  )
        26        Ga     tau(  26) = (  -0.0031820   0.5044210   0.1611690  )
        27        Ga     tau(  27) = (   0.1721400   0.3262460   0.1602980  )
        28        Ga     tau(  28) = (   0.1664540   0.5007290  -0.0009420  )
        29        Sb     tau(  29) = (   0.0821020   0.4143120   0.0820370  )
        30        Sb     tau(  30) = (   0.0834900   0.5863940   0.2472980  )
        31        Sb     tau(  31) = (   0.2536630   0.4134610   0.2453270  )
        32        Sb     tau(  32) = (   0.2527490   0.5824610   0.0848870  )
        33        Ga     tau(  33) = (   0.0026320   0.3331360   0.3305480  )
        34        Ga     tau(  34) = (  -0.0004440   0.5002350   0.5037930  )
        35        Ga     tau(  35) = (   0.1690990   0.3319770   0.5003620  )
        36        Ga     tau(  36) = (   0.1668030   0.4985760   0.3291150  )
        37        Sb     tau(  37) = (   0.0842340   0.4166600   0.4172950  )
        38        Sb     tau(  38) = (   0.0838420   0.5841200   0.5886550  )
        39        Sb     tau(  39) = (   0.2517250   0.4152420   0.5874250  )
        40        Sb     tau(  40) = (   0.2497760   0.5840750   0.4134340  )
        41        Ga     tau(  41) = (   0.0055660   0.3381820   0.6736540  )
        42        Ga     tau(  42) = (   0.0036540   0.4958790   0.8296380  )
        43        Ga     tau(  43) = (   0.1625000   0.3377890   0.8301970  )
        44        Ga     tau(  44) = (   0.1673180   0.4994010   0.6759960  )
        45        As     tau(  45) = (   0.0853060   0.4186910   0.7513140  )
        46        Sb     tau(  46) = (   0.0830420   0.5836200   0.9137830  )
        47        Sb     tau(  47) = (   0.2514200   0.4162700   0.9170530  )
        48        As     tau(  48) = (   0.2458140   0.5834290   0.7515710  )
        49        Ga     tau(  49) = (  -0.0038220   0.6619640   0.0015910  )
        50        Ga     tau(  50) = (   0.0013040   0.8358450   0.1643660  )
        51        Ga     tau(  51) = (   0.1745070   0.6724390   0.1706300  )
        52        Ga     tau(  52) = (   0.1656820   0.8347570  -0.0000370  )
        53        Sb     tau(  53) = (   0.0841250   0.7478460   0.0833100  )
        54        Sb     tau(  54) = (   0.0869990   0.9172170   0.2495110  )
        55        As     tau(  55) = (   0.2532380   0.7540490   0.2487540  )
        56        Sb     tau(  56) = (   0.2522340   0.9201520   0.0843880  )
        57        Ga     tau(  57) = (  -0.0010460   0.6689380   0.3331520  )
        58        Ga     tau(  58) = (  -0.0068410   0.8293410   0.5046910  )
        59        Ga     tau(  59) = (   0.1671370   0.6657530   0.5013550  )
        60        Ga     tau(  60) = (   0.1721910   0.8303220   0.3295740  )
        61        Sb     tau(  61) = (   0.0835240   0.7513260   0.4180720  )
        62        Sb     tau(  62) = (   0.0807430   0.9144710   0.5853830  )
        63        Sb     tau(  63) = (   0.2504580   0.7496110   0.5875410  )
        64        Sb     tau(  64) = (   0.2537540   0.9187220   0.4123990  )
        65        Ga     tau(  65) = (  -0.0016200   0.6745660   0.6670000  )
        66        Ga     tau(  66) = (   0.0019100   0.8326720   0.8261750  )
        67        Ga     tau(  67) = (   0.1636630   0.6680360   0.8251780  )
        68        Ga     tau(  68) = (   0.1615500   0.8295010   0.6726480  )
        69        As     tau(  69) = (   0.0807920   0.7497250   0.7486870  )
        70        Sb     tau(  70) = (   0.0821540   0.9189990   0.9149490  )
        71        Sb     tau(  71) = (   0.2479660   0.7493770   0.9142480  )
        72        Sb     tau(  72) = (   0.2486000   0.9175080   0.7535190  )
        73        Ga     tau(  73) = (   0.3372360   0.0084150   0.0025000  )
        74        Ga     tau(  74) = (   0.3311880   0.1620110   0.1625230  )
        75        Ga     tau(  75) = (   0.4976570  -0.0001620   0.1646100  )
        76        Ga     tau(  76) = (   0.4982690   0.1656660   0.0108330  )
        77        As     tau(  77) = (   0.4168110   0.0833170   0.0864920  )
        78        Sb     tau(  78) = (   0.4180540   0.2449780   0.2454650  )
        79        As     tau(  79) = (   0.5791900   0.0805850   0.2442580  )
        80        As     tau(  80) = (   0.5796420   0.2492300   0.0833240  )
        81        Ga     tau(  81) = (   0.3395500   0.0058060   0.3285780  )
        82        Ga     tau(  82) = (   0.3449420   0.1665850   0.4967570  )
        83        Ga     tau(  83) = (   0.5004720   0.0098120   0.4975610  )
        84        Ga     tau(  84) = (   0.5004500   0.1570660   0.3299440  )
        85        As     tau(  85) = (   0.4193900   0.0840030   0.4133520  )
        86        As     tau(  86) = (   0.4208630   0.2473730   0.5812980  )
        87        As     tau(  87) = (   0.5796970   0.0847250   0.5832040  )
        88        Sb     tau(  88) = (   0.5801820   0.2461780   0.4172280  )
        89        Ga     tau(  89) = (   0.3327450  -0.0004810   0.6674020  )
        90        Ga     tau(  90) = (   0.3308750   0.1641480   0.8397770  )
        91        Ga     tau(  91) = (   0.5005990   0.0014770   0.8334510  )
        92        Ga     tau(  92) = (   0.5003070   0.1678910   0.6601860  )
        93        Sb     tau(  93) = (   0.4165100   0.0858550   0.7495080  )
        94        Sb     tau(  94) = (   0.4169890   0.2488410   0.9226270  )
        95        Sb     tau(  95) = (   0.5812460   0.0841060   0.9215150  )
        96        Sb     tau(  96) = (   0.5830340   0.2515030   0.7496550  )
        97        Ga     tau(  97) = (   0.3335770   0.3317110   0.0076250  )
        98        Ga     tau(  98) = (   0.3416210   0.4934620   0.1598380  )
        99        Ga     tau(  99) = (   0.4990150   0.3306740   0.1578530  )
       100        Ga     tau( 100) = (   0.4988450   0.4884510  -0.0022300  )
       101        As     tau( 101) = (   0.4186330   0.4116140   0.0804220  )
       102        Sb     tau( 102) = (   0.4157520   0.5829660   0.2481790  )
       103        Sb     tau( 103) = (   0.5806060   0.4146160   0.2465880  )
       104        Sb     tau( 104) = (   0.5812610   0.5802570   0.0787370  )
       105        Ga     tau( 105) = (   0.3369920   0.3307170   0.3318930  )
       106        Ga     tau( 106) = (   0.3327370   0.4999520   0.4998300  )
       107        Ga     tau( 107) = (   0.5018980   0.3318010   0.5087300  )
       108        Ga     tau( 108) = (   0.4989550   0.4990040   0.3333400  )
       109        Sb     tau( 109) = (   0.4186520   0.4139010   0.4200770  )
       110        Sb     tau( 110) = (   0.4167950   0.5824860   0.5850650  )
       111        As     tau( 111) = (   0.5836920   0.4152920   0.5860180  )
       112        Sb     tau( 112) = (   0.5832140   0.5821630   0.4172980  )
       113        Ga     tau( 113) = (   0.3406850   0.3249730   0.6632290  )
       114        Ga     tau( 114) = (   0.3290050   0.5048780   0.8285090  )
       115        Ga     tau( 115) = (   0.5020030   0.3352820   0.8393830  )
       116        Ga     tau( 116) = (   0.5057700   0.4971160   0.6642090  )
       117        Sb     tau( 117) = (   0.4180230   0.4162050   0.7494280  )
       118        Sb     tau( 118) = (   0.4185080   0.5815700   0.9164010  )
       119        As     tau( 119) = (   0.5827780   0.4119060   0.9187620  )
       120        Sb     tau( 120) = (   0.5871190   0.5825590   0.7540250  )
       121        Ga     tau( 121) = (   0.3342830   0.6674590  -0.0001800  )
       122        Ga     tau( 122) = (   0.3354030   0.8381640   0.1733430  )
       123        Ga     tau( 123) = (   0.5013740   0.6664140   0.1654460  )
       124        Ga     tau( 124) = (   0.5099610   0.8361390   0.0015010  )
       125        Sb     tau( 125) = (   0.4187590   0.7543120   0.0838830  )
       126        As     tau( 126) = (   0.4165780   0.9227280   0.2479760  )
       127        Sb     tau( 127) = (   0.5827230   0.7550490   0.2496420  )
       128        As     tau( 128) = (   0.5824310   0.9188770   0.0855810  )
       129        Ga     tau( 129) = (   0.3291390   0.6713220   0.3270100  )
       130        Ga     tau( 130) = (   0.3338820   0.8346370   0.5007230  )
       131        Ga     tau( 131) = (   0.4990240   0.6679140   0.4994320  )
       132        Ga     tau( 132) = (   0.4939400   0.8421130   0.3283890  )
       133        Sb     tau( 133) = (   0.4154030   0.7521820   0.4131460  )
       134        Sb     tau( 134) = (   0.4189750   0.9204320   0.5812920  )
       135        Sb     tau( 135) = (   0.5846460   0.7497520   0.5848200  )
       136        Sb     tau( 136) = (   0.5821300   0.9223780   0.4129890  )
       137        Ga     tau( 137) = (   0.3291740   0.6602470   0.6733990  )
       138        Ga     tau( 138) = (   0.3352470   0.8346330   0.8360920  )
       139        Ga     tau( 139) = (   0.5060680   0.6708330   0.8398740  )
       140        Ga     tau( 140) = (   0.4987400   0.8333480   0.6663340  )
       141        Sb     tau( 141) = (   0.4169670   0.7477820   0.7527490  )
       142        Sb     tau( 142) = (   0.4195130   0.9189890   0.9204730  )
       143        As     tau( 143) = (   0.5852940   0.7539460   0.9163700  )
       144        Sb     tau( 144) = (   0.5843220   0.9155700   0.7504940  )
       145        Ga     tau( 145) = (   0.6621540  -0.0041070   0.0040530  )
       146        Ga     tau( 146) = (   0.6546420   0.1667890   0.1651020  )
       147        Ga     tau( 147) = (   0.8263510  -0.0025030   0.1705340  )
       148        Ga     tau( 148) = (   0.8381370   0.1646630  -0.0008850  )
       149        Sb     tau( 149) = (   0.7464840   0.0843560   0.0839710  )
       150        Sb     tau( 150) = (   0.7465760   0.2473580   0.2463900  )
       151        Sb     tau( 151) = (   0.9157060   0.0822100   0.2485510  )
       152        As     tau( 152) = (   0.9153690   0.2463050   0.0801640  )
       153        Ga     tau( 153) = (   0.6639730   0.0018440   0.3210460  )
       154        Ga     tau( 154) = (   0.6607690   0.1619710   0.5045550  )
       155        Ga     tau( 155) = (   0.8316690  -0.0007960   0.4993430  )
       156        Ga     tau( 156) = (   0.8310100   0.1656320   0.3329600  )
       157        Sb     tau( 157) = (   0.7450360   0.0815250   0.4150360  )
       158        Sb     tau( 158) = (   0.7461510   0.2508090   0.5849210  )
       159        Sb     tau( 159) = (   0.9166720   0.0818910   0.5851430  )
       160        Sb     tau( 160) = (   0.9170730   0.2496380   0.4148910  )
       161        Ga     tau( 161) = (   0.6609390   0.0042380   0.6627560  )
       162        Ga     tau( 162) = (   0.6669190   0.1652170   0.8348830  )
       163        Ga     tau( 163) = (   0.8396180  -0.0022340   0.8339330  )
       164        Ga     tau( 164) = (   0.8337730   0.1693880   0.6677810  )
       165        Sb     tau( 165) = (   0.7512480   0.0815230   0.7500210  )
       166        Sb     tau( 166) = (   0.7491900   0.2504730   0.9184090  )
       167        As     tau( 167) = (   0.9145950   0.0824690   0.9166820  )
       168        Sb     tau( 168) = (   0.9169220   0.2529870   0.7543060  )
       169        Ga     tau( 169) = (   0.6575170   0.3298070   0.0006750  )
       170        Ga     tau( 170) = (   0.6674390   0.4990150   0.1651690  )
       171        Ga     tau( 171) = (   0.8348300   0.3261940   0.1590130  )
       172        Ga     tau( 172) = (   0.8370780   0.5053910   0.0019660  )
       173        Sb     tau( 173) = (   0.7497290   0.4145590   0.0793690  )
       174        Sb     tau( 174) = (   0.7508610   0.5845350   0.2480690  )
       175        Sb     tau( 175) = (   0.9154620   0.4156730   0.2460450  )
       176        As     tau( 176) = (   0.9166710   0.5835270   0.0816130  )
       177        Ga     tau( 177) = (   0.6647930   0.3316200   0.3329130  )
       178        Ga     tau( 178) = (   0.6611080   0.4962420   0.5059880  )
       179        Ga     tau( 179) = (   0.8333420   0.3315340   0.5008450  )
       180        Ga     tau( 180) = (   0.8316490   0.4996420   0.3343280  )
       181        Sb     tau( 181) = (   0.7472660   0.4161540   0.4189920  )
       182        Sb     tau( 182) = (   0.7492700   0.5835550   0.5860840  )
       183        Sb     tau( 183) = (   0.9150910   0.4155310   0.5885740  )
       184        Sb     tau( 184) = (   0.9164720   0.5850780   0.4192230  )
       185        Ga     tau( 185) = (   0.6659760   0.3414380   0.6686250  )
       186        Ga     tau( 186) = (   0.6655450   0.4902500   0.8374110  )
       187        Ga     tau( 187) = (   0.8254710   0.3387640   0.8301810  )
       188        Ga     tau( 188) = (   0.8272460   0.4968280   0.6733800  )
       189        As     tau( 189) = (   0.7454500   0.4174170   0.7517360  )
       190        Sb     tau( 190) = (   0.7478520   0.5834910   0.9159590  )
       191        Sb     tau( 191) = (   0.9155860   0.4166240   0.9157130  )
       192        Sb     tau( 192) = (   0.9165030   0.5839130   0.7495960  )
       193        Ga     tau( 193) = (   0.6606150   0.6709220  -0.0053710  )
       194        Ga     tau( 194) = (   0.6654170   0.8422790   0.1656410  )
       195        Ga     tau( 195) = (   0.8366480   0.6637060   0.1599240  )
       196        Ga     tau( 196) = (   0.8341020   0.8333310  -0.0009630  )
       197        Sb     tau( 197) = (   0.7472580   0.7511240   0.0821050  )
       198        As     tau( 198) = (   0.7450660   0.9191250   0.2470610  )
       199        Sb     tau( 199) = (   0.9142060   0.7524920   0.2466790  )
       200        Sb     tau( 200) = (   0.9147970   0.9203050   0.0830030  )
       201        Ga     tau( 201) = (   0.6672780   0.6686280   0.3340420  )
       202        Ga     tau( 202) = (   0.6650560   0.8357530   0.4990160  )
       203        Ga     tau( 203) = (   0.8377600   0.6718030   0.5077440  )
       204        Ga     tau( 204) = (   0.8250660   0.8387210   0.3258210  )
       205        Sb     tau( 205) = (   0.7518060   0.7521100   0.4179890  )
       206        Sb     tau( 206) = (   0.7496380   0.9163160   0.5863530  )
       207        As     tau( 207) = (   0.9150110   0.7527220   0.5894040  )
       208        Sb     tau( 208) = (   0.9138210   0.9145150   0.4147350  )
       209        Ga     tau( 209) = (   0.6726480   0.6710800   0.6731800  )
       210        Ga     tau( 210) = (   0.6689650   0.8268330   0.8322630  )
       211        Ga     tau( 211) = (   0.8289750   0.6693200   0.8295980  )
       212        Ga     tau( 212) = (   0.8351050   0.8318460   0.6736160  )
       213        As     tau( 213) = (   0.7520710   0.7514120   0.7511220  )
       214        Sb     tau( 214) = (   0.7491960   0.9159270   0.9160180  )
       215        Sb     tau( 215) = (   0.9175090   0.7497320   0.9142560  )
       216        As     tau( 216) = (   0.9163820   0.9130560   0.7526170  )

     number of k points=     8
                       cart. coord. in units 2pi/alat
        k(    1) = (   0.0000000   0.0000000   0.0000000), wk =   0.2500000
        k(    2) = (   0.0000000   0.0000000  -0.5000000), wk =   0.2500000
        k(    3) = (   0.0000000  -0.5000000  -0.5000000), wk =   0.2500000
        k(    4) = (  -0.5000000  -0.5000000  -0.5000000), wk =   0.2500000
        k(    5) = (  -0.5000000   0.0000000   0.0000000), wk =   0.2500000
        k(    6) = (   0.0000000  -0.5000000   0.0000000), wk =   0.2500000
        k(    7) = (  -0.5000000   0.0000000   0.5000000), wk =   0.2500000
        k(    8) = (  -0.5000000   0.5000000   0.0000000), wk =   0.2500000

     Dense  grid:  7000505 G-vectors     FFT dimensions: ( 240, 240, 240)

     Estimated max dynamical RAM per process >       2.70 GB

     Estimated total dynamical RAM >    1716.05 GB

     Initial potential from superposition of free atoms

     starting charge    3023.6593, renormalised to    3024.0000

     STARTING HUBBARD OCCUPATIONS:

     =================== HUBBARD OCCUPATIONS ===================
     ------------------------ ATOM    1 ------------------------
     Tr[ns(  1)] =   1.00000
     eigenvalues:
       0.167  0.167  0.167
     eigenvectors (columns):
       1.000  0.000  0.000
       0.000  1.000  0.000
       0.000  0.000  1.000
     occupation matrix ns (before diag.):
       0.167  0.000  0.000
       0.000  0.167  0.000
       0.000  0.000  0.167
     ------------------------ ATOM    2 ------------------------
     Tr[ns(  2)] =   1.00000
     eigenvalues:
       0.167  0.167  0.167
     eigenvectors (columns):
       1.000  0.000  0.000
       0.000  1.000  0.000
       0.000  0.000  1.000
     occupation matrix ns (before diag.):
       0.167  0.000  0.000
       0.000  0.167  0.000
       0.000  0.000  0.167
     ------------------------ ATOM    3 ------------------------
     Tr[ns(  3)] =   1.00000
     eigenvalues:
       0.167  0.167  0.167
     eigenvectors (columns):
       1.000  0.000  0.000
       0.000  1.000  0.000
       0.000  0.000  1.000
     occupation matrix ns (before diag.):
       0.167  0.000  0.000
       0.000  0.167  0.000
       0.000  0.000  0.167
     ------------------------ ATOM    4 ------------------------
     Tr[ns(  4)] =   1.00000
     eigenvalues:
       0.167  0.167  0.167
     eigenvectors (columns):
       1.000  0.000  0.000
       0.000  1.000  0.000
       0.000  0.000  1.000
     occupation matrix ns (before diag.):
       0.167  0.000  0.000
       0.000  0.167  0.000
       0.000  0.000  0.167
     ------------------------ ATOM    5 ------------------------
     Tr[ns(  5)] =   3.00000
     eigenvalues:
       0.500  0.500  0.500
     eigenvectors (columns):
       1.000  0.000  0.000
       0.000  1.000  0.000
       0.000  0.000  1.000
     occupation matrix ns (before diag.):
       0.500  0.000  0.000
       0.000  0.500  0.000
       0.000  0.000  0.500
     ------------------------ ATOM    6 ------------------------
     Tr[ns(  6)] =   3.00000
     eigenvalues:
       0.500  0.500  0.500
     eigenvectors (columns):
       1.000  0.000  0.000
       0.000  1.000  0.000
       0.000  0.000  1.000
     occupation matrix ns (before diag.):
       0.500  0.000  0.000
       0.000  0.500  0.000
       0.000  0.000  0.500
     ------------------------ ATOM    7 ------------------------
     Tr[ns(  7)] =   3.00000
     eigenvalues:
       0.500  0.500  0.500
     eigenvectors (columns):
       1.000  0.000  0.000
       0.000  1.000  0.000
       0.000  0.000  1.000
     occupation matrix ns (before diag.):
       0.500  0.000  0.000
       0.000  0.500  0.000
       0.000  0.000  0.500
     ------------------------ ATOM    8 ------------------------
     Tr[ns(  8)] =   3.00000
     eigenvalues:
       0.500  0.500  0.500
     eigenvectors (columns):
       1.000  0.000  0.000
       0.000  1.000  0.000
       0.000  0.000  1.000
     occupation matrix ns (before diag.):
       0.500  0.000  0.000
       0.000  0.500  0.000
       0.000  0.000  0.500
     ------------------------ ATOM    9 ------------------------
     Tr[ns(  9)] =   1.00000
     eigenvalues:
       0.167  0.167  0.167
     eigenvectors (columns):
       1.000  0.000  0.000
       0.000  1.000  0.000
       0.000  0.000  1.000
     occupation matrix ns (before diag.):
       0.167  0.000  0.000
       0.000  0.167  0.000
       0.000  0.000  0.167
     ------------------------ ATOM   10 ------------------------
     Tr[ns( 10)] =   1.00000
     eigenvalues:
       0.167  0.167  0.167
     eigenvectors (columns):
       1.000  0.000  0.000
       0.000  1.000  0.000
       0.000  0.000  1.000
     occupation matrix ns (before diag.):
       0.167  0.000  0.000
       0.000  0.167  0.000
       0.000  0.000  0.167
     ------------------------ ATOM   11 ------------------------
     Tr[ns( 11)] =   1.00000
     eigenvalues:
       0.167  0.167  0.167
     eigenvectors (columns):
       1.000  0.000  0.000
       0.000  1.000  0.000
       0.000  0.000  1.000
     occupation matrix ns (before diag.):
       0.167  0.000  0.000
       0.000  0.167  0.000
       0.000  0.000  0.167
     ------------------------ ATOM   12 ------------------------
     Tr[ns( 12)] =   1.00000
     eigenvalues:
       0.167  0.167  0.167
     eigenvectors (columns):
       1.000  0.000  0.000
       0.000  1.000  0.000
       0.000  0.000  1.000
     occupation matrix ns (before diag.):
       0.167  0.000  0.000
       0.000  0.167  0.000
       0.000  0.000  0.167
     ------------------------ ATOM   13 ------------------------
     Tr[ns( 13)] =   3.00000
     eigenvalues:
       0.500  0.500  0.500
     eigenvectors (columns):
       1.000  0.000  0.000
       0.000  1.000  0.000
       0.000  0.000  1.000
     occupation matrix ns (before diag.):
       0.500  0.000  0.000
       0.000  0.500  0.000
       0.000  0.000  0.500
     ------------------------ ATOM   14 ------------------------
     Tr[ns( 14)] =   3.00000
     eigenvalues:
       0.500  0.500  0.500
     eigenvectors (columns):
       1.000  0.000  0.000
       0.000  1.000  0.000
       0.000  0.000  1.000
     occupation matrix ns (before diag.):
       0.500  0.000  0.000
       0.000  0.500  0.000
       0.000  0.000  0.500
     ------------------------ ATOM   15 ------------------------
     Tr[ns( 15)] =   3.00000
     eigenvalues:
       0.500  0.500  0.500
     eigenvectors (columns):
       1.000  0.000  0.000
       0.000  1.000  0.000
       0.000  0.000  1.000
     occupation matrix ns (before diag.):
       0.500  0.000  0.000
       0.000  0.500  0.000
       0.000  0.000  0.500
     ------------------------ ATOM   16 ------------------------
     Tr[ns( 16)] =   3.00000
     eigenvalues:
       0.500  0.500  0.500
     eigenvectors (columns):
       1.000  0.000  0.000
       0.000  1.000  0.000
       0.000  0.000  1.000
     occupation matrix ns (before diag.):
       0.500  0.000  0.000
       0.000  0.500  0.000
       0.000  0.000  0.500
     ------------------------ ATOM   17 ------------------------
     Tr[ns( 17)] =   1.00000
     eigenvalues:
       0.167  0.167  0.167
     eigenvectors (columns):
       1.000  0.000  0.000
       0.000  1.000  0.000
       0.000  0.000  1.000
     occupation matrix ns (before diag.):
       0.167  0.000  0.000
       0.000  0.167  0.000
       0.000  0.000  0.167
     ------------------------ ATOM   18 ------------------------
     Tr[ns( 18)] =   1.00000
     eigenvalues:
       0.167  0.167  0.167
     eigenvectors (columns):
       1.000  0.000  0.000
       0.000  1.000  0.000
       0.000  0.000  1.000
     occupation matrix ns (before diag.):
       0.167  0.000  0.000
       0.000  0.167  0.000
       0.000  0.000  0.167
     ------------------------ ATOM   19 ------------------------
     Tr[ns( 19)] =   1.00000
     eigenvalues:
       0.167  0.167  0.167
     eigenvectors (columns):
       1.000  0.000  0.000
       0.000  1.000  0.000
       0.000  0.000  1.000
     occupation matrix ns (before diag.):
       0.167  0.000  0.000
       0.000  0.167  0.000
       0.000  0.000  0.167
     ------------------------ ATOM   20 ------------------------
     Tr[ns( 20)] =   1.00000
     eigenvalues:
       0.167  0.167  0.167
     eigenvectors (columns):
       1.000  0.000  0.000
       0.000  1.000  0.000
       0.000  0.000  1.000
     occupation matrix ns (before diag.):
       0.167  0.000  0.000
       0.000  0.167  0.000
       0.000  0.000  0.167
     ------------------------ ATOM   21 ------------------------
     Tr[ns( 21)] =   3.00000
     eigenvalues:
       0.500  0.500  0.500
     eigenvectors (columns):
       1.000  0.000  0.000
       0.000  1.000  0.000
       0.000  0.000  1.000
     occupation matrix ns (before diag.):
       0.500  0.000  0.000
       0.000  0.500  0.000
       0.000  0.000  0.500
     ------------------------ ATOM   22 ------------------------
     Tr[ns( 22)] =   3.00000
     eigenvalues:
       0.500  0.500  0.500
     eigenvectors (columns):
       1.000  0.000  0.000
       0.000  1.000  0.000
       0.000  0.000  1.000
     occupation matrix ns (before diag.):
       0.500  0.000  0.000
       0.000  0.500  0.000
       0.000  0.000  0.500
     ------------------------ ATOM   23 ------------------------
     Tr[ns( 23)] =   3.00000
     eigenvalues:
       0.500  0.500  0.500
     eigenvectors (columns):
       1.000  0.000  0.000
       0.000  1.000  0.000
       0.000  0.000  1.000
     occupation matrix ns (before diag.):
       0.500  0.000  0.000
       0.000  0.500  0.000
       0.000  0.000  0.500
     ------------------------ ATOM   24 ------------------------
     Tr[ns( 24)] =   3.00000
     eigenvalues:
       0.500  0.500  0.500
     eigenvectors (columns):
       1.000  0.000  0.000
       0.000  1.000  0.000
       0.000  0.000  1.000
     occupation matrix ns (before diag.):
       0.500  0.000  0.000
       0.000  0.500  0.000
       0.000  0.000  0.500
     ------------------------ ATOM   25 ------------------------
     Tr[ns( 25)] =   1.00000
     eigenvalues:
       0.167  0.167  0.167
     eigenvectors (columns):
       1.000  0.000  0.000
       0.000  1.000  0.000
       0.000  0.000  1.000
     occupation matrix ns (before diag.):
       0.167  0.000  0.000
       0.000  0.167  0.000
       0.000  0.000  0.167
     ------------------------ ATOM   26 ------------------------
     Tr[ns( 26)] =   1.00000
     eigenvalues:
       0.167  0.167  0.167
     eigenvectors (columns):
       1.000  0.000  0.000
       0.000  1.000  0.000
       0.000  0.000  1.000
     occupation matrix ns (before diag.):
       0.167  0.000  0.000
       0.000  0.167  0.000
       0.000  0.000  0.167
     ------------------------ ATOM   27 ------------------------
     Tr[ns( 27)] =   1.00000
     eigenvalues:
       0.167  0.167  0.167
     eigenvectors (columns):
       1.000  0.000  0.000
       0.000  1.000  0.000
       0.000  0.000  1.000
     occupation matrix ns (before diag.):
       0.167  0.000  0.000
       0.000  0.167  0.000
       0.000  0.000  0.167
     ------------------------ ATOM   28 ------------------------
     Tr[ns( 28)] =   1.00000
     eigenvalues:
       0.167  0.167  0.167
     eigenvectors (columns):
       1.000  0.000  0.000
       0.000  1.000  0.000
       0.000  0.000  1.000
     occupation matrix ns (before diag.):
       0.167  0.000  0.000
       0.000  0.167  0.000
       0.000  0.000  0.167
     ------------------------ ATOM   29 ------------------------
     Tr[ns( 29)] =   3.00000
     eigenvalues:
       0.500  0.500  0.500
     eigenvectors (columns):
       1.000  0.000  0.000
       0.000  1.000  0.000
       0.000  0.000  1.000
     occupation matrix ns (before diag.):
       0.500  0.000  0.000
       0.000  0.500  0.000
       0.000  0.000  0.500
     ------------------------ ATOM   30 ------------------------
     Tr[ns( 30)] =   3.00000
     eigenvalues:
       0.500  0.500  0.500
     eigenvectors (columns):
       1.000  0.000  0.000
       0.000  1.000  0.000
       0.000  0.000  1.000
     occupation matrix ns (before diag.):
       0.500  0.000  0.000
       0.000  0.500  0.000
       0.000  0.000  0.500
     ------------------------ ATOM   31 ------------------------
     Tr[ns( 31)] =   3.00000
     eigenvalues:
       0.500  0.500  0.500
     eigenvectors (columns):
       1.000  0.000  0.000
       0.000  1.000  0.000
       0.000  0.000  1.000
     occupation matrix ns (before diag.):
       0.500  0.000  0.000
       0.000  0.500  0.000
       0.000  0.000  0.500
     ------------------------ ATOM   32 ------------------------
     Tr[ns( 32)] =   3.00000
     eigenvalues:
       0.500  0.500  0.500
     eigenvectors (columns):
       1.000  0.000  0.000
       0.000  1.000  0.000
       0.000  0.000  1.000
     occupation matrix ns (before diag.):
       0.500  0.000  0.000
       0.000  0.500  0.000
       0.000  0.000  0.500
     ------------------------ ATOM   33 ------------------------
     Tr[ns( 33)] =   1.00000
     eigenvalues:
       0.167  0.167  0.167
     eigenvectors (columns):
       1.000  0.000  0.000
       0.000  1.000  0.000
       0.000  0.000  1.000
     occupation matrix ns (before diag.):
       0.167  0.000  0.000
       0.000  0.167  0.000
       0.000  0.000  0.167
     ------------------------ ATOM   34 ------------------------
     Tr[ns( 34)] =   1.00000
     eigenvalues:
       0.167  0.167  0.167
     eigenvectors (columns):
       1.000  0.000  0.000
       0.000  1.000  0.000
       0.000  0.000  1.000
     occupation matrix ns (before diag.):
       0.167  0.000  0.000
       0.000  0.167  0.000
       0.000  0.000  0.167
     ------------------------ ATOM   35 ------------------------
     Tr[ns( 35)] =   1.00000
     eigenvalues:
       0.167  0.167  0.167
     eigenvectors (columns):
       1.000  0.000  0.000
       0.000  1.000  0.000
       0.000  0.000  1.000
     occupation matrix ns (before diag.):
       0.167  0.000  0.000
       0.000  0.167  0.000
       0.000  0.000  0.167
     ------------------------ ATOM   36 ------------------------
     Tr[ns( 36)] =   1.00000
     eigenvalues:
       0.167  0.167  0.167
     eigenvectors (columns):
       1.000  0.000  0.000
       0.000  1.000  0.000
       0.000  0.000  1.000
     occupation matrix ns (before diag.):
       0.167  0.000  0.000
       0.000  0.167  0.000
       0.000  0.000  0.167
     ------------------------ ATOM   37 ------------------------
     Tr[ns( 37)] =   3.00000
     eigenvalues:
       0.500  0.500  0.500
     eigenvectors (columns):
       1.000  0.000  0.000
       0.000  1.000  0.000
       0.000  0.000  1.000
     occupation matrix ns (before diag.):
       0.500  0.000  0.000
       0.000  0.500  0.000
       0.000  0.000  0.500
     ------------------------ ATOM   38 ------------------------
     Tr[ns( 38)] =   3.00000
     eigenvalues:
       0.500  0.500  0.500
     eigenvectors (columns):
       1.000  0.000  0.000
       0.000  1.000  0.000
       0.000  0.000  1.000
     occupation matrix ns (before diag.):
       0.500  0.000  0.000
       0.000  0.500  0.000
       0.000  0.000  0.500
     ------------------------ ATOM   39 ------------------------
     Tr[ns( 39)] =   3.00000
     eigenvalues:
       0.500  0.500  0.500
     eigenvectors (columns):
       1.000  0.000  0.000
       0.000  1.000  0.000
       0.000  0.000  1.000
     occupation matrix ns (before diag.):
       0.500  0.000  0.000
       0.000  0.500  0.000
       0.000  0.000  0.500
     ------------------------ ATOM   40 ------------------------
     Tr[ns( 40)] =   3.00000
     eigenvalues:
       0.500  0.500  0.500
     eigenvectors (columns):
       1.000  0.000  0.000
       0.000  1.000  0.000
       0.000  0.000  1.000
     occupation matrix ns (before diag.):
       0.500  0.000  0.000
       0.000  0.500  0.000
       0.000  0.000  0.500
     ------------------------ ATOM   41 ------------------------
     Tr[ns( 41)] =   1.00000
     eigenvalues:
       0.167  0.167  0.167
     eigenvectors (columns):
       1.000  0.000  0.000
       0.000  1.000  0.000
       0.000  0.000  1.000
     occupation matrix ns (before diag.):
       0.167  0.000  0.000
       0.000  0.167  0.000
       0.000  0.000  0.167
     ------------------------ ATOM   42 ------------------------
     Tr[ns( 42)] =   1.00000
     eigenvalues:
       0.167  0.167  0.167
     eigenvectors (columns):
       1.000  0.000  0.000
       0.000  1.000  0.000
       0.000  0.000  1.000
     occupation matrix ns (before diag.):
       0.167  0.000  0.000
       0.000  0.167  0.000
       0.000  0.000  0.167
     ------------------------ ATOM   43 ------------------------
     Tr[ns( 43)] =   1.00000
     eigenvalues:
       0.167  0.167  0.167
     eigenvectors (columns):
       1.000  0.000  0.000
       0.000  1.000  0.000
       0.000  0.000  1.000
     occupation matrix ns (before diag.):
       0.167  0.000  0.000
       0.000  0.167  0.000
       0.000  0.000  0.167
     ------------------------ ATOM   44 ------------------------
     Tr[ns( 44)] =   1.00000
     eigenvalues:
       0.167  0.167  0.167
     eigenvectors (columns):
       1.000  0.000  0.000
       0.000  1.000  0.000
       0.000  0.000  1.000
     occupation matrix ns (before diag.):
       0.167  0.000  0.000
       0.000  0.167  0.000
       0.000  0.000  0.167
     ------------------------ ATOM   45 ------------------------
     Tr[ns( 45)] =   3.00000
     eigenvalues:
       0.500  0.500  0.500
     eigenvectors (columns):
       1.000  0.000  0.000
       0.000  1.000  0.000
       0.000  0.000  1.000
     occupation matrix ns (before diag.):
       0.500  0.000  0.000
       0.000  0.500  0.000
       0.000  0.000  0.500
     ------------------------ ATOM   46 ------------------------
     Tr[ns( 46)] =   3.00000
     eigenvalues:
       0.500  0.500  0.500
     eigenvectors (columns):
       1.000  0.000  0.000
       0.000  1.000  0.000
       0.000  0.000  1.000
     occupation matrix ns (before diag.):
       0.500  0.000  0.000
       0.000  0.500  0.000
       0.000  0.000  0.500
     ------------------------ ATOM   47 ------------------------
     Tr[ns( 47)] =   3.00000
     eigenvalues:
       0.500  0.500  0.500
     eigenvectors (columns):
       1.000  0.000  0.000
       0.000  1.000  0.000
       0.000  0.000  1.000
     occupation matrix ns (before diag.):
       0.500  0.000  0.000
       0.000  0.500  0.000
       0.000  0.000  0.500
     ------------------------ ATOM   48 ------------------------
     Tr[ns( 48)] =   3.00000
     eigenvalues:
       0.500  0.500  0.500
     eigenvectors (columns):
       1.000  0.000  0.000
       0.000  1.000  0.000
       0.000  0.000  1.000
     occupation matrix ns (before diag.):
       0.500  0.000  0.000
       0.000  0.500  0.000
       0.000  0.000  0.500
     ------------------------ ATOM   49 ------------------------
     Tr[ns( 49)] =   1.00000
     eigenvalues:
       0.167  0.167  0.167
     eigenvectors (columns):
       1.000  0.000  0.000
       0.000  1.000  0.000
       0.000  0.000  1.000
     occupation matrix ns (before diag.):
       0.167  0.000  0.000
       0.000  0.167  0.000
       0.000  0.000  0.167
     ------------------------ ATOM   50 ------------------------
     Tr[ns( 50)] =   1.00000
     eigenvalues:
       0.167  0.167  0.167
     eigenvectors (columns):
       1.000  0.000  0.000
       0.000  1.000  0.000
       0.000  0.000  1.000
     occupation matrix ns (before diag.):
       0.167  0.000  0.000
       0.000  0.167  0.000
       0.000  0.000  0.167
     ------------------------ ATOM   51 ------------------------
     Tr[ns( 51)] =   1.00000
     eigenvalues:
       0.167  0.167  0.167
     eigenvectors (columns):
       1.000  0.000  0.000
       0.000  1.000  0.000
       0.000  0.000  1.000
     occupation matrix ns (before diag.):
       0.167  0.000  0.000
       0.000  0.167  0.000
       0.000  0.000  0.167
     ------------------------ ATOM   52 ------------------------
     Tr[ns( 52)] =   1.00000
     eigenvalues:
       0.167  0.167  0.167
     eigenvectors (columns):
       1.000  0.000  0.000
       0.000  1.000  0.000
       0.000  0.000  1.000
     occupation matrix ns (before diag.):
       0.167  0.000  0.000
       0.000  0.167  0.000
       0.000  0.000  0.167
     ------------------------ ATOM   53 ------------------------
     Tr[ns( 53)] =   3.00000
     eigenvalues:
       0.500  0.500  0.500
     eigenvectors (columns):
       1.000  0.000  0.000
       0.000  1.000  0.000
       0.000  0.000  1.000
     occupation matrix ns (before diag.):
       0.500  0.000  0.000
       0.000  0.500  0.000
       0.000  0.000  0.500
     ------------------------ ATOM   54 ------------------------
     Tr[ns( 54)] =   3.00000
     eigenvalues:
       0.500  0.500  0.500
     eigenvectors (columns):
       1.000  0.000  0.000
       0.000  1.000  0.000
       0.000  0.000  1.000
     occupation matrix ns (before diag.):
       0.500  0.000  0.000
       0.000  0.500  0.000
       0.000  0.000  0.500
     ------------------------ ATOM   55 ------------------------
     Tr[ns( 55)] =   3.00000
     eigenvalues:
       0.500  0.500  0.500
     eigenvectors (columns):
       1.000  0.000  0.000
       0.000  1.000  0.000
       0.000  0.000  1.000
     occupation matrix ns (before diag.):
       0.500  0.000  0.000
       0.000  0.500  0.000
       0.000  0.000  0.500
     ------------------------ ATOM   56 ------------------------
     Tr[ns( 56)] =   3.00000
     eigenvalues:
       0.500  0.500  0.500
     eigenvectors (columns):
       1.000  0.000  0.000
       0.000  1.000  0.000
       0.000  0.000  1.000
     occupation matrix ns (before diag.):
       0.500  0.000  0.000
       0.000  0.500  0.000
       0.000  0.000  0.500
     ------------------------ ATOM   57 ------------------------
     Tr[ns( 57)] =   1.00000
     eigenvalues:
       0.167  0.167  0.167
     eigenvectors (columns):
       1.000  0.000  0.000
       0.000  1.000  0.000
       0.000  0.000  1.000
     occupation matrix ns (before diag.):
       0.167  0.000  0.000
       0.000  0.167  0.000
       0.000  0.000  0.167
     ------------------------ ATOM   58 ------------------------
     Tr[ns( 58)] =   1.00000
     eigenvalues:
       0.167  0.167  0.167
     eigenvectors (columns):
       1.000  0.000  0.000
       0.000  1.000  0.000
       0.000  0.000  1.000
     occupation matrix ns (before diag.):
       0.167  0.000  0.000
       0.000  0.167  0.000
       0.000  0.000  0.167
     ------------------------ ATOM   59 ------------------------
     Tr[ns( 59)] =   1.00000
     eigenvalues:
       0.167  0.167  0.167
     eigenvectors (columns):
       1.000  0.000  0.000
       0.000  1.000  0.000
       0.000  0.000  1.000
     occupation matrix ns (before diag.):
       0.167  0.000  0.000
       0.000  0.167  0.000
       0.000  0.000  0.167
     ------------------------ ATOM   60 ------------------------
     Tr[ns( 60)] =   1.00000
     eigenvalues:
       0.167  0.167  0.167
     eigenvectors (columns):
       1.000  0.000  0.000
       0.000  1.000  0.000
       0.000  0.000  1.000
     occupation matrix ns (before diag.):
       0.167  0.000  0.000
       0.000  0.167  0.000
       0.000  0.000  0.167
     ------------------------ ATOM   61 ------------------------
     Tr[ns( 61)] =   3.00000
     eigenvalues:
       0.500  0.500  0.500
     eigenvectors (columns):
       1.000  0.000  0.000
       0.000  1.000  0.000
       0.000  0.000  1.000
     occupation matrix ns (before diag.):
       0.500  0.000  0.000
       0.000  0.500  0.000
       0.000  0.000  0.500
     ------------------------ ATOM   62 ------------------------
     Tr[ns( 62)] =   3.00000
     eigenvalues:
       0.500  0.500  0.500
     eigenvectors (columns):
       1.000  0.000  0.000
       0.000  1.000  0.000
       0.000  0.000  1.000
     occupation matrix ns (before diag.):
       0.500  0.000  0.000
       0.000  0.500  0.000
       0.000  0.000  0.500
     ------------------------ ATOM   63 ------------------------
     Tr[ns( 63)] =   3.00000
     eigenvalues:
       0.500  0.500  0.500
     eigenvectors (columns):
       1.000  0.000  0.000
       0.000  1.000  0.000
       0.000  0.000  1.000
     occupation matrix ns (before diag.):
       0.500  0.000  0.000
       0.000  0.500  0.000
       0.000  0.000  0.500
     ------------------------ ATOM   64 ------------------------
     Tr[ns( 64)] =   3.00000
     eigenvalues:
       0.500  0.500  0.500
     eigenvectors (columns):
       1.000  0.000  0.000
       0.000  1.000  0.000
       0.000  0.000  1.000
     occupation matrix ns (before diag.):
       0.500  0.000  0.000
       0.000  0.500  0.000
       0.000  0.000  0.500
     ------------------------ ATOM   65 ------------------------
     Tr[ns( 65)] =   1.00000
     eigenvalues:
       0.167  0.167  0.167
     eigenvectors (columns):
       1.000  0.000  0.000
       0.000  1.000  0.000
       0.000  0.000  1.000
     occupation matrix ns (before diag.):
       0.167  0.000  0.000
       0.000  0.167  0.000
       0.000  0.000  0.167
     ------------------------ ATOM   66 ------------------------
     Tr[ns( 66)] =   1.00000
     eigenvalues:
       0.167  0.167  0.167
     eigenvectors (columns):
       1.000  0.000  0.000
       0.000  1.000  0.000
       0.000  0.000  1.000
     occupation matrix ns (before diag.):
       0.167  0.000  0.000
       0.000  0.167  0.000
       0.000  0.000  0.167
     ------------------------ ATOM   67 ------------------------
     Tr[ns( 67)] =   1.00000
     eigenvalues:
       0.167  0.167  0.167
     eigenvectors (columns):
       1.000  0.000  0.000
       0.000  1.000  0.000
       0.000  0.000  1.000
     occupation matrix ns (before diag.):
       0.167  0.000  0.000
       0.000  0.167  0.000
       0.000  0.000  0.167
     ------------------------ ATOM   68 ------------------------
     Tr[ns( 68)] =   1.00000
     eigenvalues:
       0.167  0.167  0.167
     eigenvectors (columns):
       1.000  0.000  0.000
       0.000  1.000  0.000
       0.000  0.000  1.000
     occupation matrix ns (before diag.):
       0.167  0.000  0.000
       0.000  0.167  0.000
       0.000  0.000  0.167
     ------------------------ ATOM   69 ------------------------
     Tr[ns( 69)] =   3.00000
     eigenvalues:
       0.500  0.500  0.500
     eigenvectors (columns):
       1.000  0.000  0.000
       0.000  1.000  0.000
       0.000  0.000  1.000
     occupation matrix ns (before diag.):
       0.500  0.000  0.000
       0.000  0.500  0.000
       0.000  0.000  0.500
     ------------------------ ATOM   70 ------------------------
     Tr[ns( 70)] =   3.00000
     eigenvalues:
       0.500  0.500  0.500
     eigenvectors (columns):
       1.000  0.000  0.000
       0.000  1.000  0.000
       0.000  0.000  1.000
     occupation matrix ns (before diag.):
       0.500  0.000  0.000
       0.000  0.500  0.000
       0.000  0.000  0.500
     ------------------------ ATOM   71 ------------------------
     Tr[ns( 71)] =   3.00000
     eigenvalues:
       0.500  0.500  0.500
     eigenvectors (columns):
       1.000  0.000  0.000
       0.000  1.000  0.000
       0.000  0.000  1.000
     occupation matrix ns (before diag.):
       0.500  0.000  0.000
       0.000  0.500  0.000
       0.000  0.000  0.500
     ------------------------ ATOM   72 ------------------------
     Tr[ns( 72)] =   3.00000
     eigenvalues:
       0.500  0.500  0.500
     eigenvectors (columns):
       1.000  0.000  0.000
       0.000  1.000  0.000
       0.000  0.000  1.000
     occupation matrix ns (before diag.):
       0.500  0.000  0.000
       0.000  0.500  0.000
       0.000  0.000  0.500
     ------------------------ ATOM   73 ------------------------
     Tr[ns( 73)] =   1.00000
     eigenvalues:
       0.167  0.167  0.167
     eigenvectors (columns):
       1.000  0.000  0.000
       0.000  1.000  0.000
       0.000  0.000  1.000
     occupation matrix ns (before diag.):
       0.167  0.000  0.000
       0.000  0.167  0.000
       0.000  0.000  0.167
     ------------------------ ATOM   74 ------------------------
     Tr[ns( 74)] =   1.00000
     eigenvalues:
       0.167  0.167  0.167
     eigenvectors (columns):
       1.000  0.000  0.000
       0.000  1.000  0.000
       0.000  0.000  1.000
     occupation matrix ns (before diag.):
       0.167  0.000  0.000
       0.000  0.167  0.000
       0.000  0.000  0.167
     ------------------------ ATOM   75 ------------------------
     Tr[ns( 75)] =   1.00000
     eigenvalues:
       0.167  0.167  0.167
     eigenvectors (columns):
       1.000  0.000  0.000
       0.000  1.000  0.000
       0.000  0.000  1.000
     occupation matrix ns (before diag.):
       0.167  0.000  0.000
       0.000  0.167  0.000
       0.000  0.000  0.167
     ------------------------ ATOM   76 ------------------------
     Tr[ns( 76)] =   1.00000
     eigenvalues:
       0.167  0.167  0.167
     eigenvectors (columns):
       1.000  0.000  0.000
       0.000  1.000  0.000
       0.000  0.000  1.000
     occupation matrix ns (before diag.):
       0.167  0.000  0.000
       0.000  0.167  0.000
       0.000  0.000  0.167
     ------------------------ ATOM   77 ------------------------
     Tr[ns( 77)] =   3.00000
     eigenvalues:
       0.500  0.500  0.500
     eigenvectors (columns):
       1.000  0.000  0.000
       0.000  1.000  0.000
       0.000  0.000  1.000
     occupation matrix ns (before diag.):
       0.500  0.000  0.000
       0.000  0.500  0.000
       0.000  0.000  0.500
     ------------------------ ATOM   78 ------------------------
     Tr[ns( 78)] =   3.00000
     eigenvalues:
       0.500  0.500  0.500
     eigenvectors (columns):
       1.000  0.000  0.000
       0.000  1.000  0.000
       0.000  0.000  1.000
     occupation matrix ns (before diag.):
       0.500  0.000  0.000
       0.000  0.500  0.000
       0.000  0.000  0.500
     ------------------------ ATOM   79 ------------------------
     Tr[ns( 79)] =   3.00000
     eigenvalues:
       0.500  0.500  0.500
     eigenvectors (columns):
       1.000  0.000  0.000
       0.000  1.000  0.000
       0.000  0.000  1.000
     occupation matrix ns (before diag.):
       0.500  0.000  0.000
       0.000  0.500  0.000
       0.000  0.000  0.500
     ------------------------ ATOM   80 ------------------------
     Tr[ns( 80)] =   3.00000
     eigenvalues:
       0.500  0.500  0.500
     eigenvectors (columns):
       1.000  0.000  0.000
       0.000  1.000  0.000
       0.000  0.000  1.000
     occupation matrix ns (before diag.):
       0.500  0.000  0.000
       0.000  0.500  0.000
       0.000  0.000  0.500
     ------------------------ ATOM   81 ------------------------
     Tr[ns( 81)] =   1.00000
     eigenvalues:
       0.167  0.167  0.167
     eigenvectors (columns):
       1.000  0.000  0.000
       0.000  1.000  0.000
       0.000  0.000  1.000
     occupation matrix ns (before diag.):
       0.167  0.000  0.000
       0.000  0.167  0.000
       0.000  0.000  0.167
     ------------------------ ATOM   82 ------------------------
     Tr[ns( 82)] =   1.00000
     eigenvalues:
       0.167  0.167  0.167
     eigenvectors (columns):
       1.000  0.000  0.000
       0.000  1.000  0.000
       0.000  0.000  1.000
     occupation matrix ns (before diag.):
       0.167  0.000  0.000
       0.000  0.167  0.000
       0.000  0.000  0.167
     ------------------------ ATOM   83 ------------------------
     Tr[ns( 83)] =   1.00000
     eigenvalues:
       0.167  0.167  0.167
     eigenvectors (columns):
       1.000  0.000  0.000
       0.000  1.000  0.000
       0.000  0.000  1.000
     occupation matrix ns (before diag.):
       0.167  0.000  0.000
       0.000  0.167  0.000
       0.000  0.000  0.167
     ------------------------ ATOM   84 ------------------------
     Tr[ns( 84)] =   1.00000
     eigenvalues:
       0.167  0.167  0.167
     eigenvectors (columns):
       1.000  0.000  0.000
       0.000  1.000  0.000
       0.000  0.000  1.000
     occupation matrix ns (before diag.):
       0.167  0.000  0.000
       0.000  0.167  0.000
       0.000  0.000  0.167
     ------------------------ ATOM   85 ------------------------
     Tr[ns( 85)] =   3.00000
     eigenvalues:
       0.500  0.500  0.500
     eigenvectors (columns):
       1.000  0.000  0.000
       0.000  1.000  0.000
       0.000  0.000  1.000
     occupation matrix ns (before diag.):
       0.500  0.000  0.000
       0.000  0.500  0.000
       0.000  0.000  0.500
     ------------------------ ATOM   86 ------------------------
     Tr[ns( 86)] =   3.00000
     eigenvalues:
       0.500  0.500  0.500
     eigenvectors (columns):
       1.000  0.000  0.000
       0.000  1.000  0.000
       0.000  0.000  1.000
     occupation matrix ns (before diag.):
       0.500  0.000  0.000
       0.000  0.500  0.000
       0.000  0.000  0.500
     ------------------------ ATOM   87 ------------------------
     Tr[ns( 87)] =   3.00000
     eigenvalues:
       0.500  0.500  0.500
     eigenvectors (columns):
       1.000  0.000  0.000
       0.000  1.000  0.000
       0.000  0.000  1.000
     occupation matrix ns (before diag.):
       0.500  0.000  0.000
       0.000  0.500  0.000
       0.000  0.000  0.500
     ------------------------ ATOM   88 ------------------------
     Tr[ns( 88)] =   3.00000
     eigenvalues:
       0.500  0.500  0.500
     eigenvectors (columns):
       1.000  0.000  0.000
       0.000  1.000  0.000
       0.000  0.000  1.000
     occupation matrix ns (before diag.):
       0.500  0.000  0.000
       0.000  0.500  0.000
       0.000  0.000  0.500
     ------------------------ ATOM   89 ------------------------
     Tr[ns( 89)] =   1.00000
     eigenvalues:
       0.167  0.167  0.167
     eigenvectors (columns):
       1.000  0.000  0.000
       0.000  1.000  0.000
       0.000  0.000  1.000
     occupation matrix ns (before diag.):
       0.167  0.000  0.000
       0.000  0.167  0.000
       0.000  0.000  0.167
     ------------------------ ATOM   90 ------------------------
     Tr[ns( 90)] =   1.00000
     eigenvalues:
       0.167  0.167  0.167
     eigenvectors (columns):
       1.000  0.000  0.000
       0.000  1.000  0.000
       0.000  0.000  1.000
     occupation matrix ns (before diag.):
       0.167  0.000  0.000
       0.000  0.167  0.000
       0.000  0.000  0.167
     ------------------------ ATOM   91 ------------------------
     Tr[ns( 91)] =   1.00000
     eigenvalues:
       0.167  0.167  0.167
     eigenvectors (columns):
       1.000  0.000  0.000
       0.000  1.000  0.000
       0.000  0.000  1.000
     occupation matrix ns (before diag.):
       0.167  0.000  0.000
       0.000  0.167  0.000
       0.000  0.000  0.167
     ------------------------ ATOM   92 ------------------------
     Tr[ns( 92)] =   1.00000
     eigenvalues:
       0.167  0.167  0.167
     eigenvectors (columns):
       1.000  0.000  0.000
       0.000  1.000  0.000
       0.000  0.000  1.000
     occupation matrix ns (before diag.):
       0.167  0.000  0.000
       0.000  0.167  0.000
       0.000  0.000  0.167
     ------------------------ ATOM   93 ------------------------
     Tr[ns( 93)] =   3.00000
     eigenvalues:
       0.500  0.500  0.500
     eigenvectors (columns):
       1.000  0.000  0.000
       0.000  1.000  0.000
       0.000  0.000  1.000
     occupation matrix ns (before diag.):
       0.500  0.000  0.000
       0.000  0.500  0.000
       0.000  0.000  0.500
     ------------------------ ATOM   94 ------------------------
     Tr[ns( 94)] =   3.00000
     eigenvalues:
       0.500  0.500  0.500
     eigenvectors (columns):
       1.000  0.000  0.000
       0.000  1.000  0.000
       0.000  0.000  1.000
     occupation matrix ns (before diag.):
       0.500  0.000  0.000
       0.000  0.500  0.000
       0.000  0.000  0.500
     ------------------------ ATOM   95 ------------------------
     Tr[ns( 95)] =   3.00000
     eigenvalues:
       0.500  0.500  0.500
     eigenvectors (columns):
       1.000  0.000  0.000
       0.000  1.000  0.000
       0.000  0.000  1.000
     occupation matrix ns (before diag.):
       0.500  0.000  0.000
       0.000  0.500  0.000
       0.000  0.000  0.500
     ------------------------ ATOM   96 ------------------------
     Tr[ns( 96)] =   3.00000
     eigenvalues:
       0.500  0.500  0.500
     eigenvectors (columns):
       1.000  0.000  0.000
       0.000  1.000  0.000
       0.000  0.000  1.000
     occupation matrix ns (before diag.):
       0.500  0.000  0.000
       0.000  0.500  0.000
       0.000  0.000  0.500
     ------------------------ ATOM   97 ------------------------
     Tr[ns( 97)] =   1.00000
     eigenvalues:
       0.167  0.167  0.167
     eigenvectors (columns):
       1.000  0.000  0.000
       0.000  1.000  0.000
       0.000  0.000  1.000
     occupation matrix ns (before diag.):
       0.167  0.000  0.000
       0.000  0.167  0.000
       0.000  0.000  0.167
     ------------------------ ATOM   98 ------------------------
     Tr[ns( 98)] =   1.00000
     eigenvalues:
       0.167  0.167  0.167
     eigenvectors (columns):
       1.000  0.000  0.000
       0.000  1.000  0.000
       0.000  0.000  1.000
     occupation matrix ns (before diag.):
       0.167  0.000  0.000
       0.000  0.167  0.000
       0.000  0.000  0.167
     ------------------------ ATOM   99 ------------------------
     Tr[ns( 99)] =   1.00000
     eigenvalues:
       0.167  0.167  0.167
     eigenvectors (columns):
       1.000  0.000  0.000
       0.000  1.000  0.000
       0.000  0.000  1.000
     occupation matrix ns (before diag.):
       0.167  0.000  0.000
       0.000  0.167  0.000
       0.000  0.000  0.167
     ------------------------ ATOM  100 ------------------------
     Tr[ns(100)] =   1.00000
     eigenvalues:
       0.167  0.167  0.167
     eigenvectors (columns):
       1.000  0.000  0.000
       0.000  1.000  0.000
       0.000  0.000  1.000
     occupation matrix ns (before diag.):
       0.167  0.000  0.000
       0.000  0.167  0.000
       0.000  0.000  0.167
     ------------------------ ATOM  101 ------------------------
     Tr[ns(101)] =   3.00000
     eigenvalues:
       0.500  0.500  0.500
     eigenvectors (columns):
       1.000  0.000  0.000
       0.000  1.000  0.000
       0.000  0.000  1.000
     occupation matrix ns (before diag.):
       0.500  0.000  0.000
       0.000  0.500  0.000
       0.000  0.000  0.500
     ------------------------ ATOM  102 ------------------------
     Tr[ns(102)] =   3.00000
     eigenvalues:
       0.500  0.500  0.500
     eigenvectors (columns):
       1.000  0.000  0.000
       0.000  1.000  0.000
       0.000  0.000  1.000
     occupation matrix ns (before diag.):
       0.500  0.000  0.000
       0.000  0.500  0.000
       0.000  0.000  0.500
     ------------------------ ATOM  103 ------------------------
     Tr[ns(103)] =   3.00000
     eigenvalues:
       0.500  0.500  0.500
     eigenvectors (columns):
       1.000  0.000  0.000
       0.000  1.000  0.000
       0.000  0.000  1.000
     occupation matrix ns (before diag.):
       0.500  0.000  0.000
       0.000  0.500  0.000
       0.000  0.000  0.500
     ------------------------ ATOM  104 ------------------------
     Tr[ns(104)] =   3.00000
     eigenvalues:
       0.500  0.500  0.500
     eigenvectors (columns):
       1.000  0.000  0.000
       0.000  1.000  0.000
       0.000  0.000  1.000
     occupation matrix ns (before diag.):
       0.500  0.000  0.000
       0.000  0.500  0.000
       0.000  0.000  0.500
     ------------------------ ATOM  105 ------------------------
     Tr[ns(105)] =   1.00000
     eigenvalues:
       0.167  0.167  0.167
     eigenvectors (columns):
       1.000  0.000  0.000
       0.000  1.000  0.000
       0.000  0.000  1.000
     occupation matrix ns (before diag.):
       0.167  0.000  0.000
       0.000  0.167  0.000
       0.000  0.000  0.167
     ------------------------ ATOM  106 ------------------------
     Tr[ns(106)] =   1.00000
     eigenvalues:
       0.167  0.167  0.167
     eigenvectors (columns):
       1.000  0.000  0.000
       0.000  1.000  0.000
       0.000  0.000  1.000
     occupation matrix ns (before diag.):
       0.167  0.000  0.000
       0.000  0.167  0.000
       0.000  0.000  0.167
     ------------------------ ATOM  107 ------------------------
     Tr[ns(107)] =   1.00000
     eigenvalues:
       0.167  0.167  0.167
     eigenvectors (columns):
       1.000  0.000  0.000
       0.000  1.000  0.000
       0.000  0.000  1.000
     occupation matrix ns (before diag.):
       0.167  0.000  0.000
       0.000  0.167  0.000
       0.000  0.000  0.167
     ------------------------ ATOM  108 ------------------------
     Tr[ns(108)] =   1.00000
     eigenvalues:
       0.167  0.167  0.167
     eigenvectors (columns):
       1.000  0.000  0.000
       0.000  1.000  0.000
       0.000  0.000  1.000
     occupation matrix ns (before diag.):
       0.167  0.000  0.000
       0.000  0.167  0.000
       0.000  0.000  0.167
     ------------------------ ATOM  109 ------------------------
     Tr[ns(109)] =   3.00000
     eigenvalues:
       0.500  0.500  0.500
     eigenvectors (columns):
       1.000  0.000  0.000
       0.000  1.000  0.000
       0.000  0.000  1.000
     occupation matrix ns (before diag.):
       0.500  0.000  0.000
       0.000  0.500  0.000
       0.000  0.000  0.500
     ------------------------ ATOM  110 ------------------------
     Tr[ns(110)] =   3.00000
     eigenvalues:
       0.500  0.500  0.500
     eigenvectors (columns):
       1.000  0.000  0.000
       0.000  1.000  0.000
       0.000  0.000  1.000
     occupation matrix ns (before diag.):
       0.500  0.000  0.000
       0.000  0.500  0.000
       0.000  0.000  0.500
     ------------------------ ATOM  111 ------------------------
     Tr[ns(111)] =   3.00000
     eigenvalues:
       0.500  0.500  0.500
     eigenvectors (columns):
       1.000  0.000  0.000
       0.000  1.000  0.000
       0.000  0.000  1.000
     occupation matrix ns (before diag.):
       0.500  0.000  0.000
       0.000  0.500  0.000
       0.000  0.000  0.500
     ------------------------ ATOM  112 ------------------------
     Tr[ns(112)] =   3.00000
     eigenvalues:
       0.500  0.500  0.500
     eigenvectors (columns):
       1.000  0.000  0.000
       0.000  1.000  0.000
       0.000  0.000  1.000
     occupation matrix ns (before diag.):
       0.500  0.000  0.000
       0.000  0.500  0.000
       0.000  0.000  0.500
     ------------------------ ATOM  113 ------------------------
     Tr[ns(113)] =   1.00000
     eigenvalues:
       0.167  0.167  0.167
     eigenvectors (columns):
       1.000  0.000  0.000
       0.000  1.000  0.000
       0.000  0.000  1.000
     occupation matrix ns (before diag.):
       0.167  0.000  0.000
       0.000  0.167  0.000
       0.000  0.000  0.167
     ------------------------ ATOM  114 ------------------------
     Tr[ns(114)] =   1.00000
     eigenvalues:
       0.167  0.167  0.167
     eigenvectors (columns):
       1.000  0.000  0.000
       0.000  1.000  0.000
       0.000  0.000  1.000
     occupation matrix ns (before diag.):
       0.167  0.000  0.000
       0.000  0.167  0.000
       0.000  0.000  0.167
     ------------------------ ATOM  115 ------------------------
     Tr[ns(115)] =   1.00000
     eigenvalues:
       0.167  0.167  0.167
     eigenvectors (columns):
       1.000  0.000  0.000
       0.000  1.000  0.000
       0.000  0.000  1.000
     occupation matrix ns (before diag.):
       0.167  0.000  0.000
       0.000  0.167  0.000
       0.000  0.000  0.167
     ------------------------ ATOM  116 ------------------------
     Tr[ns(116)] =   1.00000
     eigenvalues:
       0.167  0.167  0.167
     eigenvectors (columns):
       1.000  0.000  0.000
       0.000  1.000  0.000
       0.000  0.000  1.000
     occupation matrix ns (before diag.):
       0.167  0.000  0.000
       0.000  0.167  0.000
       0.000  0.000  0.167
     ------------------------ ATOM  117 ------------------------
     Tr[ns(117)] =   3.00000
     eigenvalues:
       0.500  0.500  0.500
     eigenvectors (columns):
       1.000  0.000  0.000
       0.000  1.000  0.000
       0.000  0.000  1.000
     occupation matrix ns (before diag.):
       0.500  0.000  0.000
       0.000  0.500  0.000
       0.000  0.000  0.500
     ------------------------ ATOM  118 ------------------------
     Tr[ns(118)] =   3.00000
     eigenvalues:
       0.500  0.500  0.500
     eigenvectors (columns):
       1.000  0.000  0.000
       0.000  1.000  0.000
       0.000  0.000  1.000
     occupation matrix ns (before diag.):
       0.500  0.000  0.000
       0.000  0.500  0.000
       0.000  0.000  0.500
     ------------------------ ATOM  119 ------------------------
     Tr[ns(119)] =   3.00000
     eigenvalues:
       0.500  0.500  0.500
     eigenvectors (columns):
       1.000  0.000  0.000
       0.000  1.000  0.000
       0.000  0.000  1.000
     occupation matrix ns (before diag.):
       0.500  0.000  0.000
       0.000  0.500  0.000
       0.000  0.000  0.500
     ------------------------ ATOM  120 ------------------------
     Tr[ns(120)] =   3.00000
     eigenvalues:
       0.500  0.500  0.500
     eigenvectors (columns):
       1.000  0.000  0.000
       0.000  1.000  0.000
       0.000  0.000  1.000
     occupation matrix ns (before diag.):
       0.500  0.000  0.000
       0.000  0.500  0.000
       0.000  0.000  0.500
     ------------------------ ATOM  121 ------------------------
     Tr[ns(121)] =   1.00000
     eigenvalues:
       0.167  0.167  0.167
     eigenvectors (columns):
       1.000  0.000  0.000
       0.000  1.000  0.000
       0.000  0.000  1.000
     occupation matrix ns (before diag.):
       0.167  0.000  0.000
       0.000  0.167  0.000
       0.000  0.000  0.167
     ------------------------ ATOM  122 ------------------------
     Tr[ns(122)] =   1.00000
     eigenvalues:
       0.167  0.167  0.167
     eigenvectors (columns):
       1.000  0.000  0.000
       0.000  1.000  0.000
       0.000  0.000  1.000
     occupation matrix ns (before diag.):
       0.167  0.000  0.000
       0.000  0.167  0.000
       0.000  0.000  0.167
     ------------------------ ATOM  123 ------------------------
     Tr[ns(123)] =   1.00000
     eigenvalues:
       0.167  0.167  0.167
     eigenvectors (columns):
       1.000  0.000  0.000
       0.000  1.000  0.000
       0.000  0.000  1.000
     occupation matrix ns (before diag.):
       0.167  0.000  0.000
       0.000  0.167  0.000
       0.000  0.000  0.167
     ------------------------ ATOM  124 ------------------------
     Tr[ns(124)] =   1.00000
     eigenvalues:
       0.167  0.167  0.167
     eigenvectors (columns):
       1.000  0.000  0.000
       0.000  1.000  0.000
       0.000  0.000  1.000
     occupation matrix ns (before diag.):
       0.167  0.000  0.000
       0.000  0.167  0.000
       0.000  0.000  0.167
     ------------------------ ATOM  125 ------------------------
     Tr[ns(125)] =   3.00000
     eigenvalues:
       0.500  0.500  0.500
     eigenvectors (columns):
       1.000  0.000  0.000
       0.000  1.000  0.000
       0.000  0.000  1.000
     occupation matrix ns (before diag.):
       0.500  0.000  0.000
       0.000  0.500  0.000
       0.000  0.000  0.500
     ------------------------ ATOM  126 ------------------------
     Tr[ns(126)] =   3.00000
     eigenvalues:
       0.500  0.500  0.500
     eigenvectors (columns):
       1.000  0.000  0.000
       0.000  1.000  0.000
       0.000  0.000  1.000
     occupation matrix ns (before diag.):
       0.500  0.000  0.000
       0.000  0.500  0.000
       0.000  0.000  0.500
     ------------------------ ATOM  127 ------------------------
     Tr[ns(127)] =   3.00000
     eigenvalues:
       0.500  0.500  0.500
     eigenvectors (columns):
       1.000  0.000  0.000
       0.000  1.000  0.000
       0.000  0.000  1.000
     occupation matrix ns (before diag.):
       0.500  0.000  0.000
       0.000  0.500  0.000
       0.000  0.000  0.500
     ------------------------ ATOM  128 ------------------------
     Tr[ns(128)] =   3.00000
     eigenvalues:
       0.500  0.500  0.500
     eigenvectors (columns):
       1.000  0.000  0.000
       0.000  1.000  0.000
       0.000  0.000  1.000
     occupation matrix ns (before diag.):
       0.500  0.000  0.000
       0.000  0.500  0.000
       0.000  0.000  0.500
     ------------------------ ATOM  129 ------------------------
     Tr[ns(129)] =   1.00000
     eigenvalues:
       0.167  0.167  0.167
     eigenvectors (columns):
       1.000  0.000  0.000
       0.000  1.000  0.000
       0.000  0.000  1.000
     occupation matrix ns (before diag.):
       0.167  0.000  0.000
       0.000  0.167  0.000
       0.000  0.000  0.167
     ------------------------ ATOM  130 ------------------------
     Tr[ns(130)] =   1.00000
     eigenvalues:
       0.167  0.167  0.167
     eigenvectors (columns):
       1.000  0.000  0.000
       0.000  1.000  0.000
       0.000  0.000  1.000
     occupation matrix ns (before diag.):
       0.167  0.000  0.000
       0.000  0.167  0.000
       0.000  0.000  0.167
     ------------------------ ATOM  131 ------------------------
     Tr[ns(131)] =   1.00000
     eigenvalues:
       0.167  0.167  0.167
     eigenvectors (columns):
       1.000  0.000  0.000
       0.000  1.000  0.000
       0.000  0.000  1.000
     occupation matrix ns (before diag.):
       0.167  0.000  0.000
       0.000  0.167  0.000
       0.000  0.000  0.167
     ------------------------ ATOM  132 ------------------------
     Tr[ns(132)] =   1.00000
     eigenvalues:
       0.167  0.167  0.167
     eigenvectors (columns):
       1.000  0.000  0.000
       0.000  1.000  0.000
       0.000  0.000  1.000
     occupation matrix ns (before diag.):
       0.167  0.000  0.000
       0.000  0.167  0.000
       0.000  0.000  0.167
     ------------------------ ATOM  133 ------------------------
     Tr[ns(133)] =   3.00000
     eigenvalues:
       0.500  0.500  0.500
     eigenvectors (columns):
       1.000  0.000  0.000
       0.000  1.000  0.000
       0.000  0.000  1.000
     occupation matrix ns (before diag.):
       0.500  0.000  0.000
       0.000  0.500  0.000
       0.000  0.000  0.500
     ------------------------ ATOM  134 ------------------------
     Tr[ns(134)] =   3.00000
     eigenvalues:
       0.500  0.500  0.500
     eigenvectors (columns):
       1.000  0.000  0.000
       0.000  1.000  0.000
       0.000  0.000  1.000
     occupation matrix ns (before diag.):
       0.500  0.000  0.000
       0.000  0.500  0.000
       0.000  0.000  0.500
     ------------------------ ATOM  135 ------------------------
     Tr[ns(135)] =   3.00000
     eigenvalues:
       0.500  0.500  0.500
     eigenvectors (columns):
       1.000  0.000  0.000
       0.000  1.000  0.000
       0.000  0.000  1.000
     occupation matrix ns (before diag.):
       0.500  0.000  0.000
       0.000  0.500  0.000
       0.000  0.000  0.500
     ------------------------ ATOM  136 ------------------------
     Tr[ns(136)] =   3.00000
     eigenvalues:
       0.500  0.500  0.500
     eigenvectors (columns):
       1.000  0.000  0.000
       0.000  1.000  0.000
       0.000  0.000  1.000
     occupation matrix ns (before diag.):
       0.500  0.000  0.000
       0.000  0.500  0.000
       0.000  0.000  0.500
     ------------------------ ATOM  137 ------------------------
     Tr[ns(137)] =   1.00000
     eigenvalues:
       0.167  0.167  0.167
     eigenvectors (columns):
       1.000  0.000  0.000
       0.000  1.000  0.000
       0.000  0.000  1.000
     occupation matrix ns (before diag.):
       0.167  0.000  0.000
       0.000  0.167  0.000
       0.000  0.000  0.167
     ------------------------ ATOM  138 ------------------------
     Tr[ns(138)] =   1.00000
     eigenvalues:
       0.167  0.167  0.167
     eigenvectors (columns):
       1.000  0.000  0.000
       0.000  1.000  0.000
       0.000  0.000  1.000
     occupation matrix ns (before diag.):
       0.167  0.000  0.000
       0.000  0.167  0.000
       0.000  0.000  0.167
     ------------------------ ATOM  139 ------------------------
     Tr[ns(139)] =   1.00000
     eigenvalues:
       0.167  0.167  0.167
     eigenvectors (columns):
       1.000  0.000  0.000
       0.000  1.000  0.000
       0.000  0.000  1.000
     occupation matrix ns (before diag.):
       0.167  0.000  0.000
       0.000  0.167  0.000
       0.000  0.000  0.167
     ------------------------ ATOM  140 ------------------------
     Tr[ns(140)] =   1.00000
     eigenvalues:
       0.167  0.167  0.167
     eigenvectors (columns):
       1.000  0.000  0.000
       0.000  1.000  0.000
       0.000  0.000  1.000
     occupation matrix ns (before diag.):
       0.167  0.000  0.000
       0.000  0.167  0.000
       0.000  0.000  0.167
     ------------------------ ATOM  141 ------------------------
     Tr[ns(141)] =   3.00000
     eigenvalues:
       0.500  0.500  0.500
     eigenvectors (columns):
       1.000  0.000  0.000
       0.000  1.000  0.000
       0.000  0.000  1.000
     occupation matrix ns (before diag.):
       0.500  0.000  0.000
       0.000  0.500  0.000
       0.000  0.000  0.500
     ------------------------ ATOM  142 ------------------------
     Tr[ns(142)] =   3.00000
     eigenvalues:
       0.500  0.500  0.500
     eigenvectors (columns):
       1.000  0.000  0.000
       0.000  1.000  0.000
       0.000  0.000  1.000
     occupation matrix ns (before diag.):
       0.500  0.000  0.000
       0.000  0.500  0.000
       0.000  0.000  0.500
     ------------------------ ATOM  143 ------------------------
     Tr[ns(143)] =   3.00000
     eigenvalues:
       0.500  0.500  0.500
     eigenvectors (columns):
       1.000  0.000  0.000
       0.000  1.000  0.000
       0.000  0.000  1.000
     occupation matrix ns (before diag.):
       0.500  0.000  0.000
       0.000  0.500  0.000
       0.000  0.000  0.500
     ------------------------ ATOM  144 ------------------------
     Tr[ns(144)] =   3.00000
     eigenvalues:
       0.500  0.500  0.500
     eigenvectors (columns):
       1.000  0.000  0.000
       0.000  1.000  0.000
       0.000  0.000  1.000
     occupation matrix ns (before diag.):
       0.500  0.000  0.000
       0.000  0.500  0.000
       0.000  0.000  0.500
     ------------------------ ATOM  145 ------------------------
     Tr[ns(145)] =   1.00000
     eigenvalues:
       0.167  0.167  0.167
     eigenvectors (columns):
       1.000  0.000  0.000
       0.000  1.000  0.000
       0.000  0.000  1.000
     occupation matrix ns (before diag.):
       0.167  0.000  0.000
       0.000  0.167  0.000
       0.000  0.000  0.167
     ------------------------ ATOM  146 ------------------------
     Tr[ns(146)] =   1.00000
     eigenvalues:
       0.167  0.167  0.167
     eigenvectors (columns):
       1.000  0.000  0.000
       0.000  1.000  0.000
       0.000  0.000  1.000
     occupation matrix ns (before diag.):
       0.167  0.000  0.000
       0.000  0.167  0.000
       0.000  0.000  0.167
     ------------------------ ATOM  147 ------------------------
     Tr[ns(147)] =   1.00000
     eigenvalues:
       0.167  0.167  0.167
     eigenvectors (columns):
       1.000  0.000  0.000
       0.000  1.000  0.000
       0.000  0.000  1.000
     occupation matrix ns (before diag.):
       0.167  0.000  0.000
       0.000  0.167  0.000
       0.000  0.000  0.167
     ------------------------ ATOM  148 ------------------------
     Tr[ns(148)] =   1.00000
     eigenvalues:
       0.167  0.167  0.167
     eigenvectors (columns):
       1.000  0.000  0.000
       0.000  1.000  0.000
       0.000  0.000  1.000
     occupation matrix ns (before diag.):
       0.167  0.000  0.000
       0.000  0.167  0.000
       0.000  0.000  0.167
     ------------------------ ATOM  149 ------------------------
     Tr[ns(149)] =   3.00000
     eigenvalues:
       0.500  0.500  0.500
     eigenvectors (columns):
       1.000  0.000  0.000
       0.000  1.000  0.000
       0.000  0.000  1.000
     occupation matrix ns (before diag.):
       0.500  0.000  0.000
       0.000  0.500  0.000
       0.000  0.000  0.500
     ------------------------ ATOM  150 ------------------------
     Tr[ns(150)] =   3.00000
     eigenvalues:
       0.500  0.500  0.500
     eigenvectors (columns):
       1.000  0.000  0.000
       0.000  1.000  0.000
       0.000  0.000  1.000
     occupation matrix ns (before diag.):
       0.500  0.000  0.000
       0.000  0.500  0.000
       0.000  0.000  0.500
     ------------------------ ATOM  151 ------------------------
     Tr[ns(151)] =   3.00000
     eigenvalues:
       0.500  0.500  0.500
     eigenvectors (columns):
       1.000  0.000  0.000
       0.000  1.000  0.000
       0.000  0.000  1.000
     occupation matrix ns (before diag.):
       0.500  0.000  0.000
       0.000  0.500  0.000
       0.000  0.000  0.500
     ------------------------ ATOM  152 ------------------------
[...]
   -19.6999 -19.6998 -19.6998 -19.6998 -19.6996 -19.6996 -19.6995 -19.6993
   -19.6991 -19.6989 -19.6989 -19.6988 -19.6988 -19.6986 -19.6985 -19.6984
   -19.6984 -19.6983 -19.6982 -19.6982 -19.6981 -19.6980 -19.6979 -19.6979
   -19.6978 -19.6977 -19.6976 -19.6975 -19.6974 -19.6973 -19.6971 -19.6970
   -19.6969 -19.6967 -19.6966 -19.6965 -19.6964 -19.6964 -19.6963 -19.6963
   -19.6962 -19.6961 -19.6961 -19.6959 -19.6957 -19.6957 -19.6956 -19.6955
   -19.6955 -19.6954 -19.6954 -19.6953 -19.6952 -19.6952 -19.6951 -19.6951
   -19.6948 -19.6946 -19.6945 -19.6943 -19.6938 -19.6937 -19.6937 -19.6936
   -19.6936 -19.6936 -19.6935 -19.6934 -19.6930 -19.6928 -19.6926 -19.6925
   -19.6923 -19.6923 -19.6921 -19.6919 -19.6919 -19.6917 -19.6917 -19.6917
   -19.6916 -19.6915 -19.6912 -19.6910 -19.6910 -19.6909 -19.6904 -19.6904
   -19.6902 -19.6901 -19.6899 -19.6897 -19.6896 -19.6895 -19.6894 -19.6891
   -19.6891 -19.6890 -19.6889 -19.6884 -19.6882 -19.6881 -19.6881 -19.6877
   -19.6875 -19.6875 -19.6874 -19.6872 -19.6871 -19.6870 -19.6869 -19.6866
   -19.6864 -19.6859 -19.6859 -19.6859 -19.6859 -19.6856 -19.6855 -19.6847
   -19.6847 -19.6844 -19.6842 -19.6841 -19.6840 -19.6837 -19.6836 -19.6832
   -19.6832 -19.6831 -19.6830 -19.6828 -19.6825 -19.6823 -19.6822 -19.6820
   -19.6817 -19.6816 -19.6814 -19.6813 -19.6812 -19.6811 -19.6806 -19.6801
   -19.6800 -19.6797 -19.6796 -19.6795 -19.6793 -19.6792 -19.6791 -19.6790
   -19.6786 -19.6784 -19.6782 -19.6782 -19.6781 -19.6780 -19.6778 -19.6777
   -19.6775 -19.6773 -19.6772 -19.6771 -19.6771 -19.6766 -19.6765 -19.6764
   -19.6763 -19.6763 -19.6758 -19.6755 -19.6755 -19.6754 -19.6754 -19.6748
   -19.6744 -19.6741 -19.6738 -19.6734 -19.6729 -19.6728 -19.6727 -19.6720
   -19.6719 -19.6707 -19.6707 -19.6701 -19.6692 -19.6691 -19.6685 -19.6684
   -19.6680 -19.6677 -19.6675 -19.6671 -19.6658 -19.6657 -19.6636 -19.6627
   -19.6623 -19.6552 -19.6472 -19.6465  -7.5137  -7.5096  -7.5038  -7.4767
    -7.4750  -7.4699  -7.4685  -7.4675  -7.4617  -7.4578  -7.4537  -7.4362
    -7.4326  -7.4282  -7.4272  -7.4237  -7.4209  -7.4202  -7.4150  -7.4145
    -7.4118  -7.4117  -7.4071  -7.4005  -7.3997  -7.3990  -7.3985  -7.3939
    -7.3930  -7.3928  -7.3918  -7.3908  -7.3905  -7.3893  -7.3878  -7.3862
    -7.3854  -7.3851  -7.3850  -7.3843  -7.3839  -7.3833  -7.3811  -7.3802
    -7.3799  -7.3792  -7.3787  -7.3780  -7.3761  -7.3747  -7.3743  -7.3733
    -7.3731  -7.3718  -7.3705  -7.3685  -7.3678  -7.3676  -7.3658  -7.3656
    -7.3643  -7.3640  -7.3639  -7.3631  -7.3619  -7.3618  -7.3617  -7.3609
    -7.3603  -7.3593  -7.3576  -7.3572  -7.3569  -7.3561  -7.3557  -7.3544
    -7.3532  -7.3520  -7.3515  -7.3510  -7.3508  -7.3499  -7.3495  -7.3479
    -7.3468  -7.3462  -7.3454  -7.3451  -7.3444  -7.3439  -7.3433  -7.3419
    -7.3412  -7.3407  -7.3393  -7.3391  -7.3371  -7.3368  -7.3357  -7.3352
    -7.3345  -7.3340  -7.3334  -7.3332  -7.3329  -7.3328  -7.3317  -7.3313
    -7.3308  -7.3306  -7.3294  -7.3292  -7.3287  -7.3285  -7.3283  -7.3277
    -7.3272  -7.3270  -7.3266  -7.3253  -7.3251  -7.3250  -7.3247  -7.3242
    -7.3239  -7.3233  -7.3229  -7.3218  -7.3214  -7.3204  -7.3203  -7.3200
    -7.3197  -7.3193  -7.3191  -7.3189  -7.3185  -7.3181  -7.3180  -7.3175
    -7.3171  -7.3168  -7.3165  -7.3159  -7.3156  -7.3154  -7.3151  -7.3148
    -7.3143  -7.3140  -7.3133  -7.3122  -7.3118  -7.3112  -7.3109  -7.3106
    -7.3103  -7.3098  -7.3093  -7.3090  -7.3083  -7.3081  -7.3077  -7.3076
    -7.3070  -7.3060  -7.3055  -7.3051  -7.3047  -7.3041  -7.3037  -7.3029
    -7.3025  -7.3022  -7.3017  -7.3009  -7.3001  -7.2995  -7.2992  -7.2987
    -7.2983  -7.2981  -7.2979  -7.2972  -7.2968  -7.2964  -7.2961  -7.2958
    -7.2955  -7.2953  -7.2949  -7.2946  -7.2935  -7.2933  -7.2927  -7.2925
    -7.2922  -7.2917  -7.2913  -7.2910  -7.2907  -7.2904  -7.2898  -7.2896
    -7.2893  -7.2891  -7.2882  -7.2880  -7.2877  -7.2875  -7.2870  -7.2868
    -7.2856  -7.2855  -7.2852  -7.2850  -7.2843  -7.2841  -7.2833  -7.2828
    -7.2824  -7.2820  -7.2816  -7.2812  -7.2809  -7.2806  -7.2803  -7.2797
    -7.2794  -7.2793  -7.2782  -7.2779  -7.2778  -7.2776  -7.2771  -7.2769
    -7.2768  -7.2765  -7.2762  -7.2758  -7.2756  -7.2749  -7.2746  -7.2744
    -7.2743  -7.2740  -7.2736  -7.2733  -7.2728  -7.2727  -7.2724  -7.2719
    -7.2714  -7.2713  -7.2708  -7.2703  -7.2700  -7.2697  -7.2693  -7.2690
    -7.2687  -7.2686  -7.2682  -7.2678  -7.2673  -7.2668  -7.2663  -7.2661
    -7.2659  -7.2654  -7.2649  -7.2647  -7.2644  -7.2642  -7.2639  -7.2639
    -7.2633  -7.2631  -7.2627  -7.2624  -7.2622  -7.2621  -7.2617  -7.2615
    -7.2610  -7.2609  -7.2608  -7.2605  -7.2604  -7.2601  -7.2595  -7.2592
    -7.2591  -7.2587  -7.2583  -7.2577  -7.2575  -7.2568  -7.2567  -7.2565
    -7.2560  -7.2558  -7.2553  -7.2550  -7.2541  -7.2537  -7.2531  -7.2524
    -7.2522  -7.2519  -7.2514  -7.2504  -7.2501  -7.2500  -7.2499  -7.2495
    -7.2490  -7.2488  -7.2482  -7.2477  -7.2473  -7.2468  -7.2466  -7.2459
    -7.2457  -7.2453  -7.2451  -7.2450  -7.2448  -7.2442  -7.2437  -7.2434
    -7.2430  -7.2426  -7.2420  -7.2417  -7.2414  -7.2411  -7.2403  -7.2402
    -7.2397  -7.2393  -7.2389  -7.2386  -7.2379  -7.2376  -7.2375  -7.2374
    -7.2369  -7.2366  -7.2357  -7.2353  -7.2350  -7.2347  -7.2341  -7.2339
    -7.2335  -7.2333  -7.2330  -7.2328  -7.2321  -7.2317  -7.2315  -7.2313
    -7.2310  -7.2302  -7.2299  -7.2295  -7.2292  -7.2288  -7.2282  -7.2281
    -7.2277  -7.2272  -7.2268  -7.2264  -7.2258  -7.2257  -7.2251  -7.2249
    -7.2240  -7.2238  -7.2234  -7.2232  -7.2230  -7.2222  -7.2221  -7.2214
    -7.2207  -7.2204  -7.2201  -7.2199  -7.2197  -7.2194  -7.2190  -7.2188
    -7.2184  -7.2176  -7.2167  -7.2163  -7.2161  -7.2155  -7.2154  -7.2145
    -7.2139  -7.2133  -7.2132  -7.2129  -7.2127  -7.2124  -7.2117  -7.2114
    -7.2109  -7.2104  -7.2102  -7.2100  -7.2100  -7.2094  -7.2092  -7.2091
    -7.2080  -7.2074  -7.2071  -7.2061  -7.2060  -7.2054  -7.2050  -7.2045
    -7.2042  -7.2036  -7.2033  -7.2030  -7.2028  -7.2016  -7.2015  -7.2008
    -7.2003  -7.1992  -7.1991  -7.1980  -7.1978  -7.1976  -7.1966  -7.1962
    -7.1956  -7.1951  -7.1947  -7.1940  -7.1938  -7.1933  -7.1930  -7.1929
    -7.1923  -7.1920  -7.1919  -7.1911  -7.1910  -7.1908  -7.1904  -7.1897
    -7.1894  -7.1889  -7.1887  -7.1880  -7.1879  -7.1874  -7.1872  -7.1871
    -7.1868  -7.1859  -7.1847  -7.1845  -7.1843  -7.1839  -7.1836  -7.1827
    -7.1821  -7.1819  -7.1818  -7.1813  -7.1791  -7.1789  -7.1780  -7.1773
    -7.1762  -7.1761  -7.1755  -7.1748  -7.1743  -7.1722  -7.1712  -7.1709
    -7.1703  -7.1674  -7.1659  -7.1644  -7.1639  -7.1635  -7.1629  -7.1614
    -7.1609  -7.1606  -7.1600  -7.1597  -7.1585  -7.1579  -7.1576  -7.1572
    -7.1571  -7.1551  -7.1549  -7.1511  -7.1504  -7.1502  -7.1499  -7.1490
    -7.1486  -7.1481  -7.1476  -7.1470  -7.1466  -7.1461  -7.1459  -7.1447
    -7.1442  -7.1434  -7.1428  -7.1418  -7.1414  -7.1411  -7.1404  -7.1399
    -7.1322  -7.1281  -7.1224  -7.1191  -7.1153  -7.1135  -7.1011  -7.0994
    -3.5461  -3.3971  -3.3643  -3.3471  -3.3111  -3.2379  -3.2141  -3.1689
    -3.1273  -3.1087  -3.0786  -3.0175  -2.9873  -2.9363  -2.9334  -2.8825
    -2.8669  -2.8047  -2.7949  -2.7707  -2.7107  -2.6756  -2.6479  -2.5903
    -2.5744  -2.5720  -2.5230  -2.5205  -2.4960  -2.4491  -2.3955  -2.3754
    -2.3650  -2.3408  -2.3137  -2.3050  -2.2701  -2.2475  -2.2254  -2.1992
    -2.1751  -2.1376  -2.1335  -2.1014  -2.0979  -2.0556  -2.0442  -2.0328
    -2.0015  -1.9724  -1.9694  -1.9530  -1.9466  -1.9297  -1.9190  -1.8984
    -1.8174  -1.7898  -1.7387  -1.7034  -1.6993  -1.6405  -1.6333  -1.6019
    -1.5942  -1.5697  -1.5451  -1.5280  -1.5192  -1.5030  -1.4854  -1.4699
    -1.4537  -1.4358  -1.4216  -1.4188  -1.4043  -1.3652  -1.3606  -1.3465
    -1.2949  -1.2883  -1.2482  -1.2323  -1.2088  -1.1913  -1.1724  -1.1493
    -1.1406  -1.1232  -1.0947  -1.0793  -1.0589  -1.0531  -1.0342  -1.0290
    -0.9200  -0.9108  -0.8869  -0.8604  -0.8085  -0.7918  -0.7805  -0.7673
    -0.7436  -0.7125  -0.6794  -0.6758  -0.3123  -0.2034  -0.1311  -0.0690
     0.0601   0.0959   0.1187   0.1354   0.1392   0.1608   0.1827   0.2121
     0.2628   0.2696   0.2862   0.3080   0.3246   0.3424   0.3627   0.4086
     0.4247   0.4492   0.4584   0.5124   0.5474   0.5521   0.5901   0.6033
     0.6439   0.6530   0.6690   0.6897   0.6980   0.7022   0.7066   0.7130
     0.7160   0.7444   0.7529   0.7684   0.7717   0.7796   0.7941   0.7974
     0.8107   0.8193   0.8278   0.8362   0.8412   0.8581   0.8746   0.8831
     0.8917   0.8983   0.9203   0.9268   0.9354   0.9506   0.9713   0.9846
     1.4366   1.4864   1.5312   1.5795   1.6499   1.6605   1.7090   1.7307
     1.7483   1.7601   1.7986   1.8144   1.8311   1.8504   1.8767   1.9032
     1.9374   1.9449   1.9576   1.9695   1.9725   1.9925   2.0264   2.0332
     2.0422   2.0680   2.0879   2.1010   2.8679   2.9333   2.9720   3.0144
     3.0229   3.0497   3.0572   3.0666   3.0894   3.1029   3.1222   3.1336
     3.1495   3.1729   3.1913   3.2075   3.2982   3.3347   3.3699   3.3771
     3.3947   3.4141   3.4377   3.4579   3.4660   3.4870   3.4932   3.5254
     3.5290   3.5458   3.5526   3.5549   3.5742   3.5881   3.6080   3.6446
     3.6602   3.6698   3.6787   3.6899   3.7156   3.7263   3.7406   3.7482
     3.7587   3.7845   3.7951   3.8085   3.8183   3.8264   3.8413   3.8628
     3.8676   3.8770   3.8938   3.8955   3.9115   3.9181   3.9420   3.9692
     3.9794   3.9920   4.0128   4.0247   4.2116   4.2514   4.2844   4.3233
     4.3497   4.3597   4.3721   4.3965   4.4067   4.4402   4.4554   4.4779
     4.4893   4.5206   4.5332   4.5466   4.5500   4.5772   4.5814   4.5863
     4.5990   4.6250   4.6425   4.6557   4.6642   4.6715   4.6981   4.7014
     4.7117   4.7227   4.7339   4.7446   4.7734   4.7901   4.8066   4.8391
     4.8424   4.8498   4.8695   4.8983   4.9108   4.9181   4.9395   4.9627
     4.9705   4.9859   5.0028   5.0146   5.0375   5.0435   5.0586   5.0703
     5.0763   5.0885   5.0945   5.1130   5.1159   5.1335   5.1580   5.1633
     5.1666   5.1769   5.1849   5.2080   5.2193   5.2385   5.2530   5.2669
     5.2933   5.3081   5.3123   5.3141   5.3416   5.3521   5.3827   5.3900
     5.4067   5.4197   5.4296   5.4407   5.4598   5.4744   5.4868   5.4956
     5.5108   5.5235   5.5408   5.5634   5.5681   5.5857   5.5996   5.6220
     5.6265   5.6367   5.6620   5.6786   5.6829   5.6952   5.7018   5.7273
     5.7389   5.7506   5.7582   5.7678   5.7925   5.7985   5.8085   5.8409
     5.8554   5.8610   5.8628   5.8892   5.9500   5.9879   5.9991   6.0006
     6.0304   6.0656   6.0794   6.1056   6.1394   6.1675   6.1719   6.1982
     6.2231   6.2326   6.2391   6.2596   6.2852   6.3009   6.3218   6.3224
     6.3321   6.3354   6.3491   6.3651   6.3741   6.3836   6.4198   6.4317
     6.4492   6.4522   6.4677   6.4953   6.5231   6.5339   6.5537   6.5657
     6.5783   6.6004   6.6224   6.6365   6.6466   6.6751   6.6865   6.7097
     6.7142   6.7311   6.7569   6.7745   6.7882   6.7966   6.8164   6.8376
     6.8926   6.9607   6.9768   6.9905   7.4358   7.4453   7.5186   7.5902
     9.1193   9.1548   9.2013   9.2499   9.2946   9.3159   9.3573   9.4006
     9.4185   9.4491   9.4573   9.4979   9.5023   9.5166   9.5297   9.5341
     9.5366   9.5592   9.5784   9.5789   9.5923   9.5992   9.6086   9.6258
     9.6529   9.6840   9.7042   9.7139   9.7261   9.7414   9.7537   9.7908
     9.8075   9.8137   9.8497   9.8545   9.8639   9.8742   9.8963   9.9103
     9.9168   9.9220   9.9283   9.9385   9.9578   9.9765   9.9936  10.0074
    10.0105  10.0188  10.0345  10.0418  10.0549  10.0664  10.0777  10.0857
    10.1146  10.1440  10.1644  10.1724  10.1884  10.1983  10.2077  10.2247
    10.2301  10.2370  10.2504  10.2725  10.2802  10.2846  10.2938  10.3021
    10.3034  10.3103  10.3214  10.3265  10.3330  10.3368  10.3499  10.3633
    10.3680  10.3827  10.3922  10.4088  10.4338  10.4727  10.4958  10.4973
    10.5139  10.5268  10.5383  10.5481  10.5559  10.5743  10.5792  10.5968
    10.6045  10.6119  10.6347  10.6505  10.6612  10.6680  10.6692  10.6856
    10.6936  10.7132  10.7440  10.7562  11.0802  11.0816  11.1324  11.1459
    11.2742  11.2990  11.3090  11.3196  11.3441  11.3519  11.3613  11.3743
    11.4020  11.4040  11.4282  11.4349  11.4549  11.4657  11.4812  11.4829
    11.4976  11.5151  11.5246  11.5397  11.5475  11.5531  11.5652  11.5727
    11.5818  11.5885  11.6094  11.6201  11.6251  11.6344  11.6430  11.6527
    11.6568  11.6640  11.6872  11.6917  11.7116  11.7199  11.7347  11.7485
    11.9070  11.9163  11.9235  11.9300  11.9433  11.9543  11.9644  11.9804
    11.9885  11.9927  11.9997  12.0067  12.0183  12.0346  12.0371  12.0653
    12.1520  12.1779  12.1855  12.1997  12.2092  12.2157  12.2267  12.2307
    12.2408  12.2450  12.2516  12.2635  12.2656  12.2841  12.2900  12.2915
    12.3030  12.3095  12.3175  12.3299  12.3371  12.3417  12.3445  12.3595
    12.3650  12.3734  12.3895  12.3906  12.4020  12.4044  12.4245  12.4392
    12.4496  12.4525  12.4603  12.4711  12.4775  12.4824  12.4868  12.5037
    12.5084  12.5237  12.5273  12.5361  12.5416  12.5533  12.5622  12.5637
    12.5700  12.5817  12.5921  12.6198  12.6276  12.6530  12.6643  12.6789
    12.7139  12.7192  12.7373  12.7580  12.8522  12.8631  12.8903  12.8949
    12.9115  12.9230  12.9318  12.9337  13.0009  13.0098  13.0197  13.0380
    13.0410  13.0477  13.0668  13.0697  13.0779  13.0833  13.0904  13.1001
    13.1090  13.1195  13.1274  13.1411  13.1440  13.1508  13.1595  13.1644
    13.1720  13.1736  13.1972  13.2013  13.2083  13.2244  13.2321  13.2418
    13.2503  13.2614  13.2797  13.2931  13.3114  13.3233  13.3353  13.3490
    13.3501  13.3660  13.3731  13.3965  13.4110  13.4121  13.4250  13.4347
    13.4556  13.4693  13.4814  13.4908  13.5453  13.6157  13.6198  13.6285
    13.6342  13.6503  13.6538  13.6765  13.6798  13.6953  13.6977  13.7055
    13.7160  13.7202  13.7373  13.7455  13.7542  13.7643  13.7764  13.7831
    13.7896  13.7930  13.8023  13.8149  13.8226  13.8310  13.8371  13.8456
    13.8589  13.8617  13.8714  13.8748  13.8845  13.8949  13.9058  13.9140
    13.9235  13.9358  13.9434  13.9480  13.9589  13.9673  13.9764  13.9959
    14.0013  14.0114  14.0157  14.0187  14.0270  14.0344  14.0356  14.0471
    14.0616  14.0796  14.0861  14.0870  14.0976  14.1051  14.1086  14.1216
    14.1239  14.1364  14.1407  14.1536  14.1573  14.1728  14.1860  14.1998
    14.3379  14.3571  14.3658  14.3936  14.4169  14.4274  14.4434  14.4647
    14.5954  14.6366  14.6544  14.6615  14.6835  14.7176  14.7343  14.7657
    14.8592  14.8756  14.8863  14.9028  14.9173  14.9281  14.9394  14.9742
    14.9864  15.0025  15.0076  15.0198  15.0342  15.0374  15.0615  15.0652
    15.2013  15.2490  15.2664  15.2826  15.2882  15.2942  15.3034  15.3140
    15.3322  15.3348  15.3597  15.3726  15.3821  15.3858  15.3955  15.3985
    15.4113  15.4232  15.4282  15.4539  15.4608  15.4744  15.4791  15.4820
    15.5116  15.5241  15.5389  15.5457  15.5589  15.5762  15.6018  15.6048
    15.6156  15.6214  15.6347  15.6567  15.6585  15.6748  15.6922  15.6964
    15.7106  15.7187  15.7447  15.7990  15.8233  15.8443  15.8683  15.8736
    15.8815  15.8858  15.9022  15.9098  15.9390  15.9716  16.0000  16.0187
    16.0227  16.0360  16.0690  16.0964  16.1308  16.1442  16.1730  16.1773
    16.1838  16.1964  16.2011  16.2127  16.2199  16.2253  16.2347  16.2466
    16.2506  16.2652  16.2698  16.2817  16.2942  16.2984  16.3090  16.3219
    16.3359  16.3431  16.3708  16.3860  16.4343  16.4623  16.4703  16.4831
    16.5059  16.5177  16.5263  16.5333  16.5469  16.5608  16.5789  16.5838
    16.5944  16.6055  16.6091  16.6216  16.6256  16.6297  16.6370  16.6571
    16.6666  16.6706  16.6738  16.6924  16.6972  16.7033  16.7115  16.7266
    16.7399  16.7444  16.7521  16.7582  16.7751  16.7820  16.7875  16.8003
    16.8101  16.8205  16.8379  16.8489  16.8547  16.8582  16.8645  16.8844
    16.8880  16.8931  16.9088  16.9226  16.9255  16.9333  16.9455  16.9615
    16.9873  16.9900  17.0050  17.0119  17.0207  17.0348  17.0380  17.0475
    17.0586  17.0628  17.0678  17.0753  17.0815  17.0868  17.0944  17.1022
    17.1058  17.1207  17.1272  17.1336  17.1423  17.1454  17.1497  17.1679
    17.1746  17.1780  17.1827  17.1980  17.2050  17.2194  17.2212  17.2263
    17.2321  17.2412  17.2583  17.2599  17.2771  17.2857  17.2966  17.3016
    17.3706  17.3980  17.4002  17.4173  17.4755  17.5012  17.5089  17.5304
    17.6026  17.6266  17.6391  17.6513  17.6532  17.6603  17.6680  17.6873
    17.6957  17.7052  17.7180  17.7200  17.7289  17.7357  17.7541  17.7602
    17.7674  17.7750  17.7785  17.7978  17.8124  17.8157  17.8267  17.8416
    17.8598  17.8951  17.9046  17.9242  17.9369  17.9438  17.9602  17.9789
    17.9874  18.0073  18.0179  18.0285  18.0479  18.0546  18.1060  18.1133
    18.1232  18.1359  18.1471  18.1497  18.1903  18.2043  18.2275  18.2481
    18.2563  18.2767  18.2884  18.3104  18.3228  18.3387  18.3560  18.3834
    18.3989  18.4084  18.4120  18.4219  18.4389  18.4536  18.4609  18.4728
    18.4753  18.4893  18.5019  18.5102  18.5126  18.5428  18.5458  18.5559
    18.5683  18.5709  18.5813  18.5939  18.6117  18.6211  18.6320  18.6342

     highest occupied, lowest unoccupied level (ev):     7.6313    8.3671

!    total energy              =  -36980.91323385 Ry
     estimated scf accuracy    <       0.00000434 Ry

     The total energy is the sum of the following terms:
     one-electron contribution =  -18756.20122380 Ry
     hartree contribution      =   11370.68414344 Ry
     xc contribution           =   -9493.29977518 Ry
     ewald contribution        =  -20102.81880973 Ry
     Hubbard energy            =       0.72243142 Ry

     convergence has been achieved in  12 iterations

     Writing all to output data dir ./tmp_In0.0Ga1.0As0.25Sb0.75_cube_3x3x3.2/In0.0Ga1.0As0.25Sb0.75_cube_3x3x3.2.save/ :
     XML data file, charge density, pseudopotentials, collected wavefunctions

     init_run     :    241.53s CPU    244.15s WALL (       1 calls)
     electrons    :   9014.36s CPU   9035.95s WALL (       1 calls)

     Called by init_run:
     wfcinit      :    231.14s CPU    233.43s WALL (       1 calls)
     potinit      :      2.06s CPU      2.12s WALL (       1 calls)
     hinit0       :      1.75s CPU      1.76s WALL (       1 calls)

     Called by electrons:
     c_bands      :   8743.56s CPU   8763.81s WALL (      13 calls)
     sum_band     :    265.61s CPU    266.14s WALL (      13 calls)
     v_of_rho     :      3.44s CPU      3.56s WALL (      13 calls)
     mix_rho      :      0.80s CPU      0.82s WALL (      13 calls)

     Called by c_bands:
     init_us_2    :     33.45s CPU     33.99s WALL (      28 calls)
     cegterg      :   8519.08s CPU   8537.90s WALL (      13 calls)

     Called by *egterg:
     cdiaghg      :    799.88s CPU    800.56s WALL (     114 calls)
     h_psi        :   4999.67s CPU   5010.17s WALL (     116 calls)
     g_psi        :      4.36s CPU      4.36s WALL (     102 calls)

     Called by h_psi:
     h_psi:calbec :    890.36s CPU    890.40s WALL (     116 calls)
     vloc_psi     :    667.64s CPU    669.21s WALL (     116 calls)
     add_vuspsi   :    869.07s CPU    871.74s WALL (     116 calls)
     vhpsi        :   2564.00s CPU   2564.14s WALL (     116 calls)

     General routines
     calbec       :   1130.84s CPU   1130.91s WALL (     246 calls)
     fft          :      3.12s CPU      3.23s WALL (     131 calls)
     ffts         :      0.22s CPU      0.22s WALL (      13 calls)
     fftw         :    669.95s CPU    671.59s WALL (  161484 calls)

     Parallel routines

     Hubbard U routines
     new_ns       :     62.82s CPU     62.84s WALL (      13 calls)
     vhpsi        :   2564.00s CPU   2564.14s WALL (     116 calls)

     PWSCF        :      2h34m CPU      2h36m WALL


   This run was terminated on:  22:31:34  12Jun2025            

=------------------------------------------------------------------------------=
   JOB DONE.
=------------------------------------------------------------------------------=
