
     Program PWSCF v.7.3.1 starts on 12Jun2025 at 22:32: 2 

     This program is part of the open-source Quantum ESPRESSO suite
     for quantum simulation of materials; please cite
         "P. Giannozzi et al., J. Phys.:Condens. Matter 21 395502 (2009);
         "P. Giannozzi et al., J. Phys.:Condens. Matter 29 465901 (2017);
         "P. Giannozzi et al., J. Chem. Phys. 152 154105 (2020);
          URL http://www.quantum-espresso.org", 
     in publications or presentations arising from this work. More details at
     http://www.quantum-espresso.org/quote

     Parallel version (MPI), running on   640 processors

     MPI processes distributed on     5 nodes
     427936 MiB available memory on the printing compute node when the environment starts

     Reading input from In0.0Ga1.0As0.25Sb0.75_cube_3x3x3.3.scf.in
Warning: card &CELL ignored
Warning: card   CELL_DOFREE = 'ALL', ignored
Warning: card / ignored

     Current dimensions of program PWSCF are:
     Max number of different atomic species (ntypx) = 10
     Max number of k-points (npk) =  40000
     Max angular momentum in pseudopotentials (lmaxx) =  4

     K-points division:     npool     =       8
     R & G space division:  proc/nbgrp/npool/nimage =      80
     Subspace diagonalization in iterative solution of the eigenvalue problem:
     one sub-group per band group will be used
     custom distributed-memory algorithm (size of sub-group:  8*  8 procs)


     Parallelization info
     --------------------
     sticks:   dense  smooth     PW     G-vecs:    dense   smooth      PW
     Min         552     552    142                87466    87466   11414
     Max         553     553    143                87473    87473   11419
     Sum       44221   44221  11385              6997649  6997649  913281

     Using Slab Decomposition



     bravais-lattice index     =            1
     lattice parameter (alat)  =      34.0288  a.u.
     unit-cell volume          =   39403.9270 (a.u.)^3
     number of atoms/cell      =          216
     number of atomic types    =            4
     number of electrons       =      3024.00
     number of Kohn-Sham states=         2160
     kinetic-energy cutoff     =     120.0000  Ry
     charge density cutoff     =     480.0000  Ry
     scf convergence threshold =      1.0E-05
     mixing beta               =       0.6500
     number of iterations used =            8  plain     mixing
     Exchange-correlation= PBE
                           (   1   4   3   4   0   0   0)
     Hubbard projectors: atomic
     Hubbard parameters of DFT+U (Dudarev formulation) in eV:
     U(As-4p) =  5.8400
     U(Ga-4p) = -2.3350
     U(In-5p) = -1.0575
     U(Sb-5p) =  4.8900

     Internal variables: lda_plus_u =T, lda_plus_u_kind = 0

     celldm(1)=  34.028790  celldm(2)=   0.000000  celldm(3)=   0.000000
     celldm(4)=   0.000000  celldm(5)=   0.000000  celldm(6)=   0.000000

     crystal axes: (cart. coord. in units of alat)
               a(1) = (   1.000000   0.000000   0.000000 )  
               a(2) = (   0.000000   1.000000   0.000000 )  
               a(3) = (   0.000000   0.000000   1.000000 )  

     reciprocal axes: (cart. coord. in units 2 pi/alat)
               b(1) = (  1.000000  0.000000  0.000000 )  
               b(2) = (  0.000000  1.000000  0.000000 )  
               b(3) = (  0.000000  0.000000  1.000000 )  


     PseudoPot. # 1 for As read from file:
     /work/i254/i254/gentles/data/pseudos/As.pbe.NC-SR.standard.v0.5.UPF
     MD5 check sum: bfe1a874457ce592347346129958e7cf
     Pseudo is Norm-conserving + core correction, Zval = 15.0
     Generated using ONCVPSP code by D. R. Hamann
     Using radial grid of 1358 points,  6 beta functions with: 
                l(1) =   0
                l(2) =   0
                l(3) =   1
                l(4) =   1
                l(5) =   2
                l(6) =   2

     PseudoPot. # 2 for Ga read from file:
     /work/i254/i254/gentles/data/pseudos/Ga.pbe.NC-SR.standard.v0.5.UPF
     MD5 check sum: 2bb81bf6f0a8d9832cf3329850435ecf
     Pseudo is Norm-conserving + core correction, Zval = 13.0
     Generated using ONCVPSP code by D. R. Hamann
     Using radial grid of 1902 points,  6 beta functions with: 
                l(1) =   0
                l(2) =   0
                l(3) =   1
                l(4) =   1
                l(5) =   2
                l(6) =   2

     PseudoPot. # 3 for In read from file:
     /work/i254/i254/gentles/data/pseudos/In.pbe.NC-SR.standard.v0.5.UPF
     MD5 check sum: 835f4bf908c982ff75c88e16816a8d7f
     Pseudo is Norm-conserving + core correction, Zval = 13.0
     Generated using ONCVPSP code by D. R. Hamann
     Using radial grid of 1964 points,  6 beta functions with: 
                l(1) =   0
                l(2) =   0
                l(3) =   1
                l(4) =   1
                l(5) =   2
                l(6) =   2

     PseudoPot. # 4 for Sb read from file:
     /work/i254/i254/gentles/data/pseudos/Sb.pbe.NC-SR.standard.v0.5.UPF
     MD5 check sum: 127f69b6101c45666faeae1b5d611565
     Pseudo is Norm-conserving + core correction, Zval = 15.0
     Generated using ONCVPSP code by D. R. Hamann
     Using radial grid of 1434 points,  6 beta functions with: 
                l(1) =   0
                l(2) =   0
                l(3) =   1
                l(4) =   1
                l(5) =   2
                l(6) =   2

     atomic species   valence    mass     pseudopotential
     As               15.00    74.92160     As( 1.00)
     Ga               13.00    69.72300     Ga( 1.00)
     In               13.00   114.81800     In( 1.00)
     Sb               15.00   121.76000     Sb( 1.00)

     No symmetry found



   Cartesian axes

     site n.     atom                  positions (alat units)
         1        Ga     tau(   1) = (   0.0008710   0.0009040   0.0003110  )
         2        Ga     tau(   2) = (  -0.0097540   0.1671340   0.1696910  )
         3        Ga     tau(   3) = (   0.1673000   0.0030240   0.1674680  )
         4        Ga     tau(   4) = (   0.1730950   0.1719570   0.0038440  )
         5        Sb     tau(   5) = (   0.0819970   0.0881690   0.0846400  )
         6        Sb     tau(   6) = (   0.0842930   0.2464320   0.2511440  )
         7        Sb     tau(   7) = (   0.2487750   0.0881090   0.2539650  )
         8        As     tau(   8) = (   0.2522140   0.2493750   0.0843610  )
         9        Ga     tau(   9) = (  -0.0002630   0.0124040   0.3325150  )
        10        Ga     tau(  10) = (  -0.0005670   0.1603290   0.4991930  )
        11        Ga     tau(  11) = (   0.1627290   0.0066340   0.4945150  )
        12        Ga     tau(  12) = (   0.1671180   0.1696400   0.3452350  )
        13        As     tau(  13) = (   0.0824850   0.0869750   0.4171520  )
        14        Sb     tau(  14) = (   0.0843040   0.2513950   0.5807990  )
        15        Sb     tau(  15) = (   0.2525260   0.0865370   0.5807990  )
        16        As     tau(  16) = (   0.2519730   0.2527250   0.4202000  )
        17        Ga     tau(  17) = (  -0.0080750   0.0040160   0.6597450  )
        18        Ga     tau(  18) = (   0.0011200   0.1673440   0.8338260  )
        19        Ga     tau(  19) = (   0.1660190   0.0004650   0.8338740  )
        20        Ga     tau(  20) = (   0.1666830   0.1667860   0.6662420  )
        21        Sb     tau(  21) = (   0.0803290   0.0819570   0.7475450  )
        22        Sb     tau(  22) = (   0.0845950   0.2522530   0.9185410  )
        23        Sb     tau(  23) = (   0.2531400   0.0849090   0.9151550  )
        24        Sb     tau(  24) = (   0.2528220   0.2514850   0.7472500  )
        25        Ga     tau(  25) = (  -0.0063360   0.3266440   0.0076260  )
        26        Ga     tau(  26) = (  -0.0005730   0.4970850   0.1680810  )
        27        Ga     tau(  27) = (   0.1721990   0.3258770   0.1647570  )
        28        Ga     tau(  28) = (   0.1662810   0.4984260  -0.0003420  )
        29        Sb     tau(  29) = (   0.0838950   0.4119530   0.0849450  )
        30        Sb     tau(  30) = (   0.0812160   0.5843030   0.2509750  )
        31        Sb     tau(  31) = (   0.2520020   0.4119920   0.2527410  )
        32        Sb     tau(  32) = (   0.2506540   0.5833170   0.0832650  )
        33        Ga     tau(  33) = (   0.0018010   0.3316480   0.3345270  )
        34        Ga     tau(  34) = (  -0.0045660   0.5027460   0.4955070  )
        35        Ga     tau(  35) = (   0.1763570   0.3345150   0.5003740  )
        36        Ga     tau(  36) = (   0.1673520   0.4992340   0.3322190  )
        37        Sb     tau(  37) = (   0.0849810   0.4164470   0.4185240  )
        38        Sb     tau(  38) = (   0.0848170   0.5784500   0.5836200  )
        39        As     tau(  39) = (   0.2550230   0.4138840   0.5816490  )
        40        Sb     tau(  40) = (   0.2545310   0.5785930   0.4189310  )
        41        Ga     tau(  41) = (   0.0048670   0.3391660   0.6683400  )
        42        Ga     tau(  42) = (   0.0046950   0.4951960   0.8277980  )
        43        Ga     tau(  43) = (   0.1641830   0.3381600   0.8281080  )
        44        Ga     tau(  44) = (   0.1704670   0.4882230   0.6643800  )
        45        As     tau(  45) = (   0.0861860   0.4164430   0.7469820  )
        46        Sb     tau(  46) = (   0.0841470   0.5835830   0.9145960  )
        47        Sb     tau(  47) = (   0.2513990   0.4161900   0.9155930  )
        48        Sb     tau(  48) = (   0.2527200   0.5779730   0.7478120  )
        49        Ga     tau(  49) = (   0.0030010   0.6699020   0.0020430  )
        50        Ga     tau(  50) = (   0.0041890   0.8290590   0.1637250  )
        51        Ga     tau(  51) = (   0.1618700   0.6703320   0.1624470  )
        52        Ga     tau(  52) = (   0.1642700   0.8275750   0.0050260  )
        53        As     tau(  53) = (   0.0827100   0.7493610   0.0828740  )
        54        Sb     tau(  54) = (   0.0811910   0.9197990   0.2499760  )
        55        Sb     tau(  55) = (   0.2489110   0.7492670   0.2499550  )
        56        Sb     tau(  56) = (   0.2512530   0.9169760   0.0822930  )
        57        Ga     tau(  57) = (  -0.0069860   0.6609510   0.3398080  )
        58        Ga     tau(  58) = (  -0.0031140   0.8349530   0.5001360  )
        59        Ga     tau(  59) = (   0.1684960   0.6645440   0.5008950  )
        60        Ga     tau(  60) = (   0.1646750   0.8340770   0.3337770  )
        61        Sb     tau(  61) = (   0.0808700   0.7478130   0.4181150  )
        62        Sb     tau(  62) = (   0.0829760   0.9198700   0.5818880  )
        63        Sb     tau(  63) = (   0.2533120   0.7486670   0.5836000  )
        64        Sb     tau(  64) = (   0.2494640   0.9200350   0.4153510  )
        65        Ga     tau(  65) = (   0.0007100   0.6655940   0.6659790  )
        66        Ga     tau(  66) = (  -0.0003940   0.8350580   0.8319820  )
        67        Ga     tau(  67) = (   0.1699410   0.6664120   0.8298220  )
        68        Ga     tau(  68) = (   0.1699330   0.8356300   0.6664640  )
        69        Sb     tau(  69) = (   0.0843690   0.7513520   0.7486050  )
        70        Sb     tau(  70) = (   0.0844330   0.9146910   0.9185720  )
        71        Sb     tau(  71) = (   0.2529940   0.7494480   0.9169170  )
        72        Sb     tau(  72) = (   0.2543370   0.9196990   0.7515830  )
        73        Ga     tau(  73) = (   0.3388050  -0.0033290  -0.0057320  )
        74        Ga     tau(  74) = (   0.3303930   0.1708210   0.1655200  )
        75        Ga     tau(  75) = (   0.5057130  -0.0008590   0.1645780  )
        76        Ga     tau(  76) = (   0.5059900   0.1712100   0.0056730  )
        77        Sb     tau(  77) = (   0.4178390   0.0840040   0.0836700  )
        78        Sb     tau(  78) = (   0.4169760   0.2523190   0.2519130  )
        79        Sb     tau(  79) = (   0.5867980   0.0860190   0.2523290  )
        80        As     tau(  80) = (   0.5846500   0.2503300   0.0862750  )
        81        Ga     tau(  81) = (   0.3368920   0.0036820   0.3328620  )
        82        Ga     tau(  82) = (   0.3349700   0.1778980   0.5005570  )
        83        Ga     tau(  83) = (   0.5039490   0.0055150   0.5048320  )
        84        Ga     tau(  84) = (   0.5046080   0.1721070   0.3372900  )
        85        Sb     tau(  85) = (   0.4185790   0.0886480   0.4198370  )
        86        As     tau(  86) = (   0.4198230   0.2521580   0.5803630  )
        87        As     tau(  87) = (   0.5810540   0.0883720   0.5806390  )
        88        As     tau(  88) = (   0.5840560   0.2506870   0.4177270  )
        89        Ga     tau(  89) = (   0.3389940   0.0053400   0.6691260  )
        90        Ga     tau(  90) = (   0.3402910   0.1634320   0.8267970  )
        91        Ga     tau(  91) = (   0.4926050   0.0012490   0.8311180  )
        92        Ga     tau(  92) = (   0.4958490   0.1648400   0.6600860  )
        93        As     tau(  93) = (   0.4192720   0.0846090   0.7460940  )
        94        Sb     tau(  94) = (   0.4175820   0.2482940   0.9178810  )
        95        Sb     tau(  95) = (   0.5814330   0.0828070   0.9164800  )
        96        Sb     tau(  96) = (   0.5795730   0.2487210   0.7467150  )
        97        Ga     tau(  97) = (   0.3290610   0.3280050   0.0025910  )
        98        Ga     tau(  98) = (   0.3340120   0.4978130   0.1687440  )
        99        Ga     tau(  99) = (   0.5033960   0.3303720   0.1629940  )
       100        Ga     tau( 100) = (   0.4992180   0.5068040  -0.0003700  )
       101        Sb     tau( 101) = (   0.4171120   0.4160340   0.0808980  )
       102        Sb     tau( 102) = (   0.4205060   0.5800980   0.2517950  )
       103        Sb     tau( 103) = (   0.5831790   0.4129970   0.2526380  )
       104        As     tau( 104) = (   0.5817420   0.5810300   0.0829210  )
       105        Ga     tau( 105) = (   0.3348470   0.3328970   0.3441840  )
       106        Ga     tau( 106) = (   0.3396940   0.4942700   0.5050510  )
       107        Ga     tau( 107) = (   0.5027030   0.3318080   0.4997640  )
       108        Ga     tau( 108) = (   0.4950680   0.4905910   0.3422220  )
       109        As     tau( 109) = (   0.4170790   0.4111860   0.4242270  )
       110        As     tau( 110) = (   0.4192680   0.5794280   0.5819710  )
       111        As     tau( 111) = (   0.5807080   0.4156640   0.5797010  )
       112        Sb     tau( 112) = (   0.5811200   0.5804410   0.4212430  )
       113        Ga     tau( 113) = (   0.3361870   0.3326710   0.6571940  )
       114        Ga     tau( 114) = (   0.3406260   0.5024730   0.8374750  )
       115        Ga     tau( 115) = (   0.4977800   0.3342390   0.8320090  )
       116        Ga     tau( 116) = (   0.5017810   0.4990520   0.6569780  )
       117        Sb     tau( 117) = (   0.4173900   0.4183260   0.7449910  )
       118        As     tau( 118) = (   0.4193930   0.5823710   0.9170580  )
       119        Sb     tau( 119) = (   0.5810730   0.4176360   0.9179170  )
       120        Sb     tau( 120) = (   0.5833530   0.5838860   0.7454270  )
       121        Ga     tau( 121) = (   0.3394010   0.6618420  -0.0048370  )
       122        Ga     tau( 122) = (   0.3349770   0.8317870   0.1661260  )
       123        Ga     tau( 123) = (   0.5054720   0.6617960   0.1627370  )
       124        Ga     tau( 124) = (   0.5016760   0.8436230  -0.0024700  )
       125        Sb     tau( 125) = (   0.4211380   0.7499280   0.0796340  )
       126        Sb     tau( 126) = (   0.4192580   0.9172310   0.2490980  )
       127        Sb     tau( 127) = (   0.5836140   0.7509870   0.2480830  )
       128        As     tau( 128) = (   0.5814680   0.9193800   0.0819780  )
       129        Ga     tau( 129) = (   0.3356330   0.6653720   0.3344230  )
       130        Ga     tau( 130) = (   0.3337450   0.8372430   0.5007770  )
       131        Ga     tau( 131) = (   0.5003180   0.6646600   0.5091050  )
       132        Ga     tau( 132) = (   0.5009270   0.8337610   0.3350560  )
       133        Sb     tau( 133) = (   0.4185090   0.7498360   0.4208860  )
       134        Sb     tau( 134) = (   0.4210520   0.9170730   0.5859510  )
       135        As     tau( 135) = (   0.5849830   0.7458030   0.5846580  )
       136        Sb     tau( 136) = (   0.5849990   0.9183570   0.4194750  )
       137        Ga     tau( 137) = (   0.3389810   0.6584920   0.6618020  )
       138        Ga     tau( 138) = (   0.3395800   0.8375030   0.8373190  )
       139        Ga     tau( 139) = (   0.4964090   0.6618290   0.8361280  )
       140        Ga     tau( 140) = (   0.5062500   0.8259590   0.6636130  )
       141        Sb     tau( 141) = (   0.4171510   0.7471190   0.7494940  )
       142        As     tau( 142) = (   0.4192320   0.9191620   0.9148620  )
       143        Sb     tau( 143) = (   0.5818580   0.7500630   0.9164450  )
       144        Sb     tau( 144) = (   0.5821690   0.9174670   0.7482800  )
       145        Ga     tau( 145) = (   0.6623930  -0.0029530   0.0037150  )
       146        Ga     tau( 146) = (   0.6669140   0.1745930   0.1681030  )
       147        Ga     tau( 147) = (   0.8385980   0.0051540   0.1734990  )
       148        Ga     tau( 148) = (   0.8356910   0.1708910   0.0056110  )
       149        Sb     tau( 149) = (   0.7498530   0.0847560   0.0863660  )
       150        As     tau( 150) = (   0.7484430   0.2473780   0.2518760  )
       151        As     tau( 151) = (   0.9139250   0.0874950   0.2529910  )
       152        As     tau( 152) = (   0.9125980   0.2487410   0.0893470  )
       153        Ga     tau( 153) = (   0.6725210   0.0051380   0.3401400  )
       154        Ga     tau( 154) = (   0.6609960   0.1651710   0.4951320  )
       155        Ga     tau( 155) = (   0.8299950   0.0099560   0.4991510  )
       156        Ga     tau( 156) = (   0.8262510   0.1633820   0.3302700  )
       157        As     tau( 157) = (   0.7481910   0.0876370   0.4179030  )
       158        Sb     tau( 158) = (   0.7459520   0.2479000   0.5806560  )
       159        As     tau( 159) = (   0.9152490   0.0845610   0.5787360  )
       160        Sb     tau( 160) = (   0.9152210   0.2445600   0.4142560  )
       161        Ga     tau( 161) = (   0.6590380   0.0074330   0.6606930  )
       162        Ga     tau( 162) = (   0.6669430   0.1663510   0.8312570  )
       163        Ga     tau( 163) = (   0.8299860   0.0010600   0.8337790  )
       164        Ga     tau( 164) = (   0.8380680   0.1647950   0.6593740  )
       165        Sb     tau( 165) = (   0.7503950   0.0845080   0.7449840  )
       166        Sb     tau( 166) = (   0.7480990   0.2505990   0.9186370  )
       167        Sb     tau( 167) = (   0.9153770   0.0853210   0.9178870  )
       168        Sb     tau( 168) = (   0.9184060   0.2508690   0.7470500  )
       169        Ga     tau( 169) = (   0.6606090   0.3303110   0.0047480  )
       170        Ga     tau( 170) = (   0.6613070   0.5016190   0.1643840  )
       171        Ga     tau( 171) = (   0.8301040   0.3253160   0.1710550  )
       172        Ga     tau( 172) = (   0.8336620   0.4994670  -0.0021920  )
       173        Sb     tau( 173) = (   0.7488670   0.4143550   0.0850390  )
       174        Sb     tau( 174) = (   0.7482690   0.5819980   0.2506640  )
       175        Sb     tau( 175) = (   0.9143980   0.4139040   0.2524650  )
       176        Sb     tau( 176) = (   0.9170650   0.5837740   0.0835490  )
       177        Ga     tau( 177) = (   0.6680370   0.3250280   0.3350510  )
       178        Ga     tau( 178) = (   0.6652200   0.4981840   0.5081190  )
       179        Ga     tau( 179) = (   0.8341160   0.3302540   0.4999120  )
       180        Ga     tau( 180) = (   0.8342520   0.5013630   0.3380040  )
       181        Sb     tau( 181) = (   0.7486230   0.4154510   0.4193810  )
       182        As     tau( 182) = (   0.7464450   0.5833260   0.5825450  )
       183        Sb     tau( 183) = (   0.9153550   0.4186140   0.5830540  )
       184        As     tau( 184) = (   0.9131520   0.5807470   0.4180350  )
       185        Ga     tau( 185) = (   0.6585420   0.3358900   0.6600710  )
       186        Ga     tau( 186) = (   0.6652560   0.4990450   0.8314030  )
       187        Ga     tau( 187) = (   0.8305110   0.3327190   0.8301300  )
       188        Ga     tau( 188) = (   0.8265640   0.5050750   0.6609650  )
       189        Sb     tau( 189) = (   0.7465090   0.4164110   0.7447390  )
       190        Sb     tau( 190) = (   0.7467710   0.5846380   0.9162920  )
       191        Sb     tau( 191) = (   0.9182250   0.4131080   0.9151810  )
       192        Sb     tau( 192) = (   0.9142570   0.5822310   0.7491750  )
       193        Ga     tau( 193) = (   0.6601160   0.6626750   0.0050230  )
       194        Ga     tau( 194) = (   0.6611340   0.8406280   0.1621120  )
       195        Ga     tau( 195) = (   0.8312970   0.6676660   0.1679640  )
       196        Ga     tau( 196) = (   0.8321160   0.8341550   0.0007070  )
       197        Sb     tau( 197) = (   0.7459380   0.7509530   0.0840020  )
       198        Sb     tau( 198) = (   0.7489070   0.9198280   0.2503310  )
       199        Sb     tau( 199) = (   0.9174610   0.7493070   0.2517550  )
       200        Sb     tau( 200) = (   0.9173360   0.9172180   0.0859350  )
       201        Ga     tau( 201) = (   0.6647980   0.6659400   0.3343950  )
       202        Ga     tau( 202) = (   0.6618740   0.8278350   0.5046730  )
       203        Ga     tau( 203) = (   0.8309020   0.6558000   0.4999800  )
       204        Ga     tau( 204) = (   0.8324180   0.8350390   0.3341040  )
       205        Sb     tau( 205) = (   0.7499840   0.7473930   0.4194210  )
       206        Sb     tau( 206) = (   0.7461630   0.9193150   0.5826920  )
       207        Sb     tau( 207) = (   0.9121360   0.7470880   0.5825220  )
       208        Sb     tau( 208) = (   0.9155660   0.9247380   0.4158770  )
       209        Ga     tau( 209) = (   0.6702470   0.6693950   0.6622870  )
       210        Ga     tau( 210) = (   0.6694050   0.8275810   0.8268260  )
       211        Ga     tau( 211) = (   0.8277600   0.6705820   0.8291440  )
       212        Ga     tau( 212) = (   0.8263510   0.8302240   0.6692260  )
       213        As     tau( 213) = (   0.7481160   0.7483090   0.7461630  )
       214        Sb     tau( 214) = (   0.7466100   0.9147840   0.9161140  )
       215        Sb     tau( 215) = (   0.9155700   0.7508070   0.9157350  )
       216        Sb     tau( 216) = (   0.9133480   0.9173070   0.7481050  )

     number of k points=     8
                       cart. coord. in units 2pi/alat
        k(    1) = (   0.0000000   0.0000000   0.0000000), wk =   0.2500000
        k(    2) = (   0.0000000   0.0000000  -0.5000000), wk =   0.2500000
        k(    3) = (   0.0000000  -0.5000000  -0.5000000), wk =   0.2500000
        k(    4) = (  -0.5000000  -0.5000000  -0.5000000), wk =   0.2500000
        k(    5) = (  -0.5000000   0.0000000   0.0000000), wk =   0.2500000
        k(    6) = (   0.0000000  -0.5000000   0.0000000), wk =   0.2500000
        k(    7) = (  -0.5000000   0.0000000   0.5000000), wk =   0.2500000
        k(    8) = (  -0.5000000   0.5000000   0.0000000), wk =   0.2500000

     Dense  grid:  6997649 G-vectors     FFT dimensions: ( 240, 240, 240)

     Estimated max dynamical RAM per process >       2.70 GB

     Estimated total dynamical RAM >    1715.31 GB

     Initial potential from superposition of free atoms

     starting charge    3023.6593, renormalised to    3024.0000

     STARTING HUBBARD OCCUPATIONS:

     =================== HUBBARD OCCUPATIONS ===================
     ------------------------ ATOM    1 ------------------------
     Tr[ns(  1)] =   1.00000
     eigenvalues:
       0.167  0.167  0.167
     eigenvectors (columns):
       1.000  0.000  0.000
       0.000  1.000  0.000
       0.000  0.000  1.000
     occupation matrix ns (before diag.):
       0.167  0.000  0.000
       0.000  0.167  0.000
       0.000  0.000  0.167
     ------------------------ ATOM    2 ------------------------
     Tr[ns(  2)] =   1.00000
     eigenvalues:
       0.167  0.167  0.167
     eigenvectors (columns):
       1.000  0.000  0.000
       0.000  1.000  0.000
       0.000  0.000  1.000
     occupation matrix ns (before diag.):
       0.167  0.000  0.000
       0.000  0.167  0.000
       0.000  0.000  0.167
     ------------------------ ATOM    3 ------------------------
     Tr[ns(  3)] =   1.00000
     eigenvalues:
       0.167  0.167  0.167
     eigenvectors (columns):
       1.000  0.000  0.000
       0.000  1.000  0.000
       0.000  0.000  1.000
     occupation matrix ns (before diag.):
       0.167  0.000  0.000
       0.000  0.167  0.000
       0.000  0.000  0.167
     ------------------------ ATOM    4 ------------------------
     Tr[ns(  4)] =   1.00000
     eigenvalues:
       0.167  0.167  0.167
     eigenvectors (columns):
       1.000  0.000  0.000
       0.000  1.000  0.000
       0.000  0.000  1.000
     occupation matrix ns (before diag.):
       0.167  0.000  0.000
       0.000  0.167  0.000
       0.000  0.000  0.167
     ------------------------ ATOM    5 ------------------------
     Tr[ns(  5)] =   3.00000
     eigenvalues:
       0.500  0.500  0.500
     eigenvectors (columns):
       1.000  0.000  0.000
       0.000  1.000  0.000
       0.000  0.000  1.000
     occupation matrix ns (before diag.):
       0.500  0.000  0.000
       0.000  0.500  0.000
       0.000  0.000  0.500
     ------------------------ ATOM    6 ------------------------
     Tr[ns(  6)] =   3.00000
     eigenvalues:
       0.500  0.500  0.500
     eigenvectors (columns):
       1.000  0.000  0.000
       0.000  1.000  0.000
       0.000  0.000  1.000
     occupation matrix ns (before diag.):
       0.500  0.000  0.000
       0.000  0.500  0.000
       0.000  0.000  0.500
     ------------------------ ATOM    7 ------------------------
     Tr[ns(  7)] =   3.00000
     eigenvalues:
       0.500  0.500  0.500
     eigenvectors (columns):
       1.000  0.000  0.000
       0.000  1.000  0.000
       0.000  0.000  1.000
     occupation matrix ns (before diag.):
       0.500  0.000  0.000
       0.000  0.500  0.000
       0.000  0.000  0.500
     ------------------------ ATOM    8 ------------------------
     Tr[ns(  8)] =   3.00000
     eigenvalues:
       0.500  0.500  0.500
     eigenvectors (columns):
       1.000  0.000  0.000
       0.000  1.000  0.000
       0.000  0.000  1.000
     occupation matrix ns (before diag.):
       0.500  0.000  0.000
       0.000  0.500  0.000
       0.000  0.000  0.500
     ------------------------ ATOM    9 ------------------------
     Tr[ns(  9)] =   1.00000
     eigenvalues:
       0.167  0.167  0.167
     eigenvectors (columns):
       1.000  0.000  0.000
       0.000  1.000  0.000
       0.000  0.000  1.000
     occupation matrix ns (before diag.):
       0.167  0.000  0.000
       0.000  0.167  0.000
       0.000  0.000  0.167
     ------------------------ ATOM   10 ------------------------
     Tr[ns( 10)] =   1.00000
     eigenvalues:
       0.167  0.167  0.167
     eigenvectors (columns):
       1.000  0.000  0.000
       0.000  1.000  0.000
       0.000  0.000  1.000
     occupation matrix ns (before diag.):
       0.167  0.000  0.000
       0.000  0.167  0.000
       0.000  0.000  0.167
     ------------------------ ATOM   11 ------------------------
     Tr[ns( 11)] =   1.00000
     eigenvalues:
       0.167  0.167  0.167
     eigenvectors (columns):
       1.000  0.000  0.000
       0.000  1.000  0.000
       0.000  0.000  1.000
     occupation matrix ns (before diag.):
       0.167  0.000  0.000
       0.000  0.167  0.000
       0.000  0.000  0.167
     ------------------------ ATOM   12 ------------------------
     Tr[ns( 12)] =   1.00000
     eigenvalues:
       0.167  0.167  0.167
     eigenvectors (columns):
       1.000  0.000  0.000
       0.000  1.000  0.000
       0.000  0.000  1.000
     occupation matrix ns (before diag.):
       0.167  0.000  0.000
       0.000  0.167  0.000
       0.000  0.000  0.167
     ------------------------ ATOM   13 ------------------------
     Tr[ns( 13)] =   3.00000
     eigenvalues:
       0.500  0.500  0.500
     eigenvectors (columns):
       1.000  0.000  0.000
       0.000  1.000  0.000
       0.000  0.000  1.000
     occupation matrix ns (before diag.):
       0.500  0.000  0.000
       0.000  0.500  0.000
       0.000  0.000  0.500
     ------------------------ ATOM   14 ------------------------
     Tr[ns( 14)] =   3.00000
     eigenvalues:
       0.500  0.500  0.500
     eigenvectors (columns):
       1.000  0.000  0.000
       0.000  1.000  0.000
       0.000  0.000  1.000
     occupation matrix ns (before diag.):
       0.500  0.000  0.000
       0.000  0.500  0.000
       0.000  0.000  0.500
     ------------------------ ATOM   15 ------------------------
     Tr[ns( 15)] =   3.00000
     eigenvalues:
       0.500  0.500  0.500
     eigenvectors (columns):
       1.000  0.000  0.000
       0.000  1.000  0.000
       0.000  0.000  1.000
     occupation matrix ns (before diag.):
       0.500  0.000  0.000
       0.000  0.500  0.000
       0.000  0.000  0.500
     ------------------------ ATOM   16 ------------------------
     Tr[ns( 16)] =   3.00000
     eigenvalues:
       0.500  0.500  0.500
     eigenvectors (columns):
       1.000  0.000  0.000
       0.000  1.000  0.000
       0.000  0.000  1.000
     occupation matrix ns (before diag.):
       0.500  0.000  0.000
       0.000  0.500  0.000
       0.000  0.000  0.500
     ------------------------ ATOM   17 ------------------------
     Tr[ns( 17)] =   1.00000
     eigenvalues:
       0.167  0.167  0.167
     eigenvectors (columns):
       1.000  0.000  0.000
       0.000  1.000  0.000
       0.000  0.000  1.000
     occupation matrix ns (before diag.):
       0.167  0.000  0.000
       0.000  0.167  0.000
       0.000  0.000  0.167
     ------------------------ ATOM   18 ------------------------
     Tr[ns( 18)] =   1.00000
     eigenvalues:
       0.167  0.167  0.167
     eigenvectors (columns):
       1.000  0.000  0.000
       0.000  1.000  0.000
       0.000  0.000  1.000
     occupation matrix ns (before diag.):
       0.167  0.000  0.000
       0.000  0.167  0.000
       0.000  0.000  0.167
     ------------------------ ATOM   19 ------------------------
     Tr[ns( 19)] =   1.00000
     eigenvalues:
       0.167  0.167  0.167
     eigenvectors (columns):
       1.000  0.000  0.000
       0.000  1.000  0.000
       0.000  0.000  1.000
     occupation matrix ns (before diag.):
       0.167  0.000  0.000
       0.000  0.167  0.000
       0.000  0.000  0.167
     ------------------------ ATOM   20 ------------------------
     Tr[ns( 20)] =   1.00000
     eigenvalues:
       0.167  0.167  0.167
     eigenvectors (columns):
       1.000  0.000  0.000
       0.000  1.000  0.000
       0.000  0.000  1.000
     occupation matrix ns (before diag.):
       0.167  0.000  0.000
       0.000  0.167  0.000
       0.000  0.000  0.167
     ------------------------ ATOM   21 ------------------------
     Tr[ns( 21)] =   3.00000
     eigenvalues:
       0.500  0.500  0.500
     eigenvectors (columns):
       1.000  0.000  0.000
       0.000  1.000  0.000
       0.000  0.000  1.000
     occupation matrix ns (before diag.):
       0.500  0.000  0.000
       0.000  0.500  0.000
       0.000  0.000  0.500
     ------------------------ ATOM   22 ------------------------
     Tr[ns( 22)] =   3.00000
     eigenvalues:
       0.500  0.500  0.500
     eigenvectors (columns):
       1.000  0.000  0.000
       0.000  1.000  0.000
       0.000  0.000  1.000
     occupation matrix ns (before diag.):
       0.500  0.000  0.000
       0.000  0.500  0.000
       0.000  0.000  0.500
     ------------------------ ATOM   23 ------------------------
     Tr[ns( 23)] =   3.00000
     eigenvalues:
       0.500  0.500  0.500
     eigenvectors (columns):
       1.000  0.000  0.000
       0.000  1.000  0.000
       0.000  0.000  1.000
     occupation matrix ns (before diag.):
       0.500  0.000  0.000
       0.000  0.500  0.000
       0.000  0.000  0.500
     ------------------------ ATOM   24 ------------------------
     Tr[ns( 24)] =   3.00000
     eigenvalues:
       0.500  0.500  0.500
     eigenvectors (columns):
       1.000  0.000  0.000
       0.000  1.000  0.000
       0.000  0.000  1.000
     occupation matrix ns (before diag.):
       0.500  0.000  0.000
       0.000  0.500  0.000
       0.000  0.000  0.500
     ------------------------ ATOM   25 ------------------------
     Tr[ns( 25)] =   1.00000
     eigenvalues:
       0.167  0.167  0.167
     eigenvectors (columns):
       1.000  0.000  0.000
       0.000  1.000  0.000
       0.000  0.000  1.000
     occupation matrix ns (before diag.):
       0.167  0.000  0.000
       0.000  0.167  0.000
       0.000  0.000  0.167
     ------------------------ ATOM   26 ------------------------
     Tr[ns( 26)] =   1.00000
     eigenvalues:
       0.167  0.167  0.167
     eigenvectors (columns):
       1.000  0.000  0.000
       0.000  1.000  0.000
       0.000  0.000  1.000
     occupation matrix ns (before diag.):
       0.167  0.000  0.000
       0.000  0.167  0.000
       0.000  0.000  0.167
     ------------------------ ATOM   27 ------------------------
     Tr[ns( 27)] =   1.00000
     eigenvalues:
       0.167  0.167  0.167
     eigenvectors (columns):
       1.000  0.000  0.000
       0.000  1.000  0.000
       0.000  0.000  1.000
     occupation matrix ns (before diag.):
       0.167  0.000  0.000
       0.000  0.167  0.000
       0.000  0.000  0.167
     ------------------------ ATOM   28 ------------------------
     Tr[ns( 28)] =   1.00000
     eigenvalues:
       0.167  0.167  0.167
     eigenvectors (columns):
       1.000  0.000  0.000
       0.000  1.000  0.000
       0.000  0.000  1.000
     occupation matrix ns (before diag.):
       0.167  0.000  0.000
       0.000  0.167  0.000
       0.000  0.000  0.167
     ------------------------ ATOM   29 ------------------------
     Tr[ns( 29)] =   3.00000
     eigenvalues:
       0.500  0.500  0.500
     eigenvectors (columns):
       1.000  0.000  0.000
       0.000  1.000  0.000
       0.000  0.000  1.000
     occupation matrix ns (before diag.):
       0.500  0.000  0.000
       0.000  0.500  0.000
       0.000  0.000  0.500
     ------------------------ ATOM   30 ------------------------
     Tr[ns( 30)] =   3.00000
     eigenvalues:
       0.500  0.500  0.500
     eigenvectors (columns):
       1.000  0.000  0.000
       0.000  1.000  0.000
       0.000  0.000  1.000
     occupation matrix ns (before diag.):
       0.500  0.000  0.000
       0.000  0.500  0.000
       0.000  0.000  0.500
     ------------------------ ATOM   31 ------------------------
     Tr[ns( 31)] =   3.00000
     eigenvalues:
       0.500  0.500  0.500
     eigenvectors (columns):
       1.000  0.000  0.000
       0.000  1.000  0.000
       0.000  0.000  1.000
     occupation matrix ns (before diag.):
       0.500  0.000  0.000
       0.000  0.500  0.000
       0.000  0.000  0.500
     ------------------------ ATOM   32 ------------------------
     Tr[ns( 32)] =   3.00000
     eigenvalues:
       0.500  0.500  0.500
     eigenvectors (columns):
       1.000  0.000  0.000
       0.000  1.000  0.000
       0.000  0.000  1.000
     occupation matrix ns (before diag.):
       0.500  0.000  0.000
       0.000  0.500  0.000
       0.000  0.000  0.500
     ------------------------ ATOM   33 ------------------------
     Tr[ns( 33)] =   1.00000
     eigenvalues:
       0.167  0.167  0.167
     eigenvectors (columns):
       1.000  0.000  0.000
       0.000  1.000  0.000
       0.000  0.000  1.000
     occupation matrix ns (before diag.):
       0.167  0.000  0.000
       0.000  0.167  0.000
       0.000  0.000  0.167
     ------------------------ ATOM   34 ------------------------
     Tr[ns( 34)] =   1.00000
     eigenvalues:
       0.167  0.167  0.167
     eigenvectors (columns):
       1.000  0.000  0.000
       0.000  1.000  0.000
       0.000  0.000  1.000
     occupation matrix ns (before diag.):
       0.167  0.000  0.000
       0.000  0.167  0.000
       0.000  0.000  0.167
     ------------------------ ATOM   35 ------------------------
     Tr[ns( 35)] =   1.00000
     eigenvalues:
       0.167  0.167  0.167
     eigenvectors (columns):
       1.000  0.000  0.000
       0.000  1.000  0.000
       0.000  0.000  1.000
     occupation matrix ns (before diag.):
       0.167  0.000  0.000
       0.000  0.167  0.000
       0.000  0.000  0.167
     ------------------------ ATOM   36 ------------------------
     Tr[ns( 36)] =   1.00000
     eigenvalues:
       0.167  0.167  0.167
     eigenvectors (columns):
       1.000  0.000  0.000
       0.000  1.000  0.000
       0.000  0.000  1.000
     occupation matrix ns (before diag.):
       0.167  0.000  0.000
       0.000  0.167  0.000
       0.000  0.000  0.167
     ------------------------ ATOM   37 ------------------------
     Tr[ns( 37)] =   3.00000
     eigenvalues:
       0.500  0.500  0.500
     eigenvectors (columns):
       1.000  0.000  0.000
       0.000  1.000  0.000
       0.000  0.000  1.000
     occupation matrix ns (before diag.):
       0.500  0.000  0.000
       0.000  0.500  0.000
       0.000  0.000  0.500
     ------------------------ ATOM   38 ------------------------
     Tr[ns( 38)] =   3.00000
     eigenvalues:
       0.500  0.500  0.500
     eigenvectors (columns):
       1.000  0.000  0.000
       0.000  1.000  0.000
       0.000  0.000  1.000
     occupation matrix ns (before diag.):
       0.500  0.000  0.000
       0.000  0.500  0.000
       0.000  0.000  0.500
     ------------------------ ATOM   39 ------------------------
     Tr[ns( 39)] =   3.00000
     eigenvalues:
       0.500  0.500  0.500
     eigenvectors (columns):
       1.000  0.000  0.000
       0.000  1.000  0.000
       0.000  0.000  1.000
     occupation matrix ns (before diag.):
       0.500  0.000  0.000
       0.000  0.500  0.000
       0.000  0.000  0.500
     ------------------------ ATOM   40 ------------------------
     Tr[ns( 40)] =   3.00000
     eigenvalues:
       0.500  0.500  0.500
     eigenvectors (columns):
       1.000  0.000  0.000
       0.000  1.000  0.000
       0.000  0.000  1.000
     occupation matrix ns (before diag.):
       0.500  0.000  0.000
       0.000  0.500  0.000
       0.000  0.000  0.500
     ------------------------ ATOM   41 ------------------------
     Tr[ns( 41)] =   1.00000
     eigenvalues:
       0.167  0.167  0.167
     eigenvectors (columns):
       1.000  0.000  0.000
       0.000  1.000  0.000
       0.000  0.000  1.000
     occupation matrix ns (before diag.):
       0.167  0.000  0.000
       0.000  0.167  0.000
       0.000  0.000  0.167
     ------------------------ ATOM   42 ------------------------
     Tr[ns( 42)] =   1.00000
     eigenvalues:
       0.167  0.167  0.167
     eigenvectors (columns):
       1.000  0.000  0.000
       0.000  1.000  0.000
       0.000  0.000  1.000
     occupation matrix ns (before diag.):
       0.167  0.000  0.000
       0.000  0.167  0.000
       0.000  0.000  0.167
     ------------------------ ATOM   43 ------------------------
     Tr[ns( 43)] =   1.00000
     eigenvalues:
       0.167  0.167  0.167
     eigenvectors (columns):
       1.000  0.000  0.000
       0.000  1.000  0.000
       0.000  0.000  1.000
     occupation matrix ns (before diag.):
       0.167  0.000  0.000
       0.000  0.167  0.000
       0.000  0.000  0.167
     ------------------------ ATOM   44 ------------------------
     Tr[ns( 44)] =   1.00000
     eigenvalues:
       0.167  0.167  0.167
     eigenvectors (columns):
       1.000  0.000  0.000
       0.000  1.000  0.000
       0.000  0.000  1.000
     occupation matrix ns (before diag.):
       0.167  0.000  0.000
       0.000  0.167  0.000
       0.000  0.000  0.167
     ------------------------ ATOM   45 ------------------------
     Tr[ns( 45)] =   3.00000
     eigenvalues:
       0.500  0.500  0.500
     eigenvectors (columns):
       1.000  0.000  0.000
       0.000  1.000  0.000
       0.000  0.000  1.000
     occupation matrix ns (before diag.):
       0.500  0.000  0.000
       0.000  0.500  0.000
       0.000  0.000  0.500
     ------------------------ ATOM   46 ------------------------
     Tr[ns( 46)] =   3.00000
     eigenvalues:
       0.500  0.500  0.500
     eigenvectors (columns):
       1.000  0.000  0.000
       0.000  1.000  0.000
       0.000  0.000  1.000
     occupation matrix ns (before diag.):
       0.500  0.000  0.000
       0.000  0.500  0.000
       0.000  0.000  0.500
     ------------------------ ATOM   47 ------------------------
     Tr[ns( 47)] =   3.00000
     eigenvalues:
       0.500  0.500  0.500
     eigenvectors (columns):
       1.000  0.000  0.000
       0.000  1.000  0.000
       0.000  0.000  1.000
     occupation matrix ns (before diag.):
       0.500  0.000  0.000
       0.000  0.500  0.000
       0.000  0.000  0.500
     ------------------------ ATOM   48 ------------------------
     Tr[ns( 48)] =   3.00000
     eigenvalues:
       0.500  0.500  0.500
     eigenvectors (columns):
       1.000  0.000  0.000
       0.000  1.000  0.000
       0.000  0.000  1.000
     occupation matrix ns (before diag.):
       0.500  0.000  0.000
       0.000  0.500  0.000
       0.000  0.000  0.500
     ------------------------ ATOM   49 ------------------------
     Tr[ns( 49)] =   1.00000
     eigenvalues:
       0.167  0.167  0.167
     eigenvectors (columns):
       1.000  0.000  0.000
       0.000  1.000  0.000
       0.000  0.000  1.000
     occupation matrix ns (before diag.):
       0.167  0.000  0.000
       0.000  0.167  0.000
       0.000  0.000  0.167
     ------------------------ ATOM   50 ------------------------
     Tr[ns( 50)] =   1.00000
     eigenvalues:
       0.167  0.167  0.167
     eigenvectors (columns):
       1.000  0.000  0.000
       0.000  1.000  0.000
       0.000  0.000  1.000
     occupation matrix ns (before diag.):
       0.167  0.000  0.000
       0.000  0.167  0.000
       0.000  0.000  0.167
     ------------------------ ATOM   51 ------------------------
     Tr[ns( 51)] =   1.00000
     eigenvalues:
       0.167  0.167  0.167
     eigenvectors (columns):
       1.000  0.000  0.000
       0.000  1.000  0.000
       0.000  0.000  1.000
     occupation matrix ns (before diag.):
       0.167  0.000  0.000
       0.000  0.167  0.000
       0.000  0.000  0.167
     ------------------------ ATOM   52 ------------------------
     Tr[ns( 52)] =   1.00000
     eigenvalues:
       0.167  0.167  0.167
     eigenvectors (columns):
       1.000  0.000  0.000
       0.000  1.000  0.000
       0.000  0.000  1.000
     occupation matrix ns (before diag.):
       0.167  0.000  0.000
       0.000  0.167  0.000
       0.000  0.000  0.167
     ------------------------ ATOM   53 ------------------------
     Tr[ns( 53)] =   3.00000
     eigenvalues:
       0.500  0.500  0.500
     eigenvectors (columns):
       1.000  0.000  0.000
       0.000  1.000  0.000
       0.000  0.000  1.000
     occupation matrix ns (before diag.):
       0.500  0.000  0.000
       0.000  0.500  0.000
       0.000  0.000  0.500
     ------------------------ ATOM   54 ------------------------
     Tr[ns( 54)] =   3.00000
     eigenvalues:
       0.500  0.500  0.500
     eigenvectors (columns):
       1.000  0.000  0.000
       0.000  1.000  0.000
       0.000  0.000  1.000
     occupation matrix ns (before diag.):
       0.500  0.000  0.000
       0.000  0.500  0.000
       0.000  0.000  0.500
     ------------------------ ATOM   55 ------------------------
     Tr[ns( 55)] =   3.00000
     eigenvalues:
       0.500  0.500  0.500
     eigenvectors (columns):
       1.000  0.000  0.000
       0.000  1.000  0.000
       0.000  0.000  1.000
     occupation matrix ns (before diag.):
       0.500  0.000  0.000
       0.000  0.500  0.000
       0.000  0.000  0.500
     ------------------------ ATOM   56 ------------------------
     Tr[ns( 56)] =   3.00000
     eigenvalues:
       0.500  0.500  0.500
     eigenvectors (columns):
       1.000  0.000  0.000
       0.000  1.000  0.000
       0.000  0.000  1.000
     occupation matrix ns (before diag.):
       0.500  0.000  0.000
       0.000  0.500  0.000
       0.000  0.000  0.500
     ------------------------ ATOM   57 ------------------------
     Tr[ns( 57)] =   1.00000
     eigenvalues:
       0.167  0.167  0.167
     eigenvectors (columns):
       1.000  0.000  0.000
       0.000  1.000  0.000
       0.000  0.000  1.000
     occupation matrix ns (before diag.):
       0.167  0.000  0.000
       0.000  0.167  0.000
       0.000  0.000  0.167
     ------------------------ ATOM   58 ------------------------
     Tr[ns( 58)] =   1.00000
     eigenvalues:
       0.167  0.167  0.167
     eigenvectors (columns):
       1.000  0.000  0.000
       0.000  1.000  0.000
       0.000  0.000  1.000
     occupation matrix ns (before diag.):
       0.167  0.000  0.000
       0.000  0.167  0.000
       0.000  0.000  0.167
     ------------------------ ATOM   59 ------------------------
     Tr[ns( 59)] =   1.00000
     eigenvalues:
       0.167  0.167  0.167
     eigenvectors (columns):
       1.000  0.000  0.000
       0.000  1.000  0.000
       0.000  0.000  1.000
     occupation matrix ns (before diag.):
       0.167  0.000  0.000
       0.000  0.167  0.000
       0.000  0.000  0.167
     ------------------------ ATOM   60 ------------------------
     Tr[ns( 60)] =   1.00000
     eigenvalues:
       0.167  0.167  0.167
     eigenvectors (columns):
       1.000  0.000  0.000
       0.000  1.000  0.000
       0.000  0.000  1.000
     occupation matrix ns (before diag.):
       0.167  0.000  0.000
       0.000  0.167  0.000
       0.000  0.000  0.167
     ------------------------ ATOM   61 ------------------------
     Tr[ns( 61)] =   3.00000
     eigenvalues:
       0.500  0.500  0.500
     eigenvectors (columns):
       1.000  0.000  0.000
       0.000  1.000  0.000
       0.000  0.000  1.000
     occupation matrix ns (before diag.):
       0.500  0.000  0.000
       0.000  0.500  0.000
       0.000  0.000  0.500
     ------------------------ ATOM   62 ------------------------
     Tr[ns( 62)] =   3.00000
     eigenvalues:
       0.500  0.500  0.500
     eigenvectors (columns):
       1.000  0.000  0.000
       0.000  1.000  0.000
       0.000  0.000  1.000
     occupation matrix ns (before diag.):
       0.500  0.000  0.000
       0.000  0.500  0.000
       0.000  0.000  0.500
     ------------------------ ATOM   63 ------------------------
     Tr[ns( 63)] =   3.00000
     eigenvalues:
       0.500  0.500  0.500
     eigenvectors (columns):
       1.000  0.000  0.000
       0.000  1.000  0.000
       0.000  0.000  1.000
     occupation matrix ns (before diag.):
       0.500  0.000  0.000
       0.000  0.500  0.000
       0.000  0.000  0.500
     ------------------------ ATOM   64 ------------------------
     Tr[ns( 64)] =   3.00000
     eigenvalues:
       0.500  0.500  0.500
     eigenvectors (columns):
       1.000  0.000  0.000
       0.000  1.000  0.000
       0.000  0.000  1.000
     occupation matrix ns (before diag.):
       0.500  0.000  0.000
       0.000  0.500  0.000
       0.000  0.000  0.500
     ------------------------ ATOM   65 ------------------------
     Tr[ns( 65)] =   1.00000
     eigenvalues:
       0.167  0.167  0.167
     eigenvectors (columns):
       1.000  0.000  0.000
       0.000  1.000  0.000
       0.000  0.000  1.000
     occupation matrix ns (before diag.):
       0.167  0.000  0.000
       0.000  0.167  0.000
       0.000  0.000  0.167
     ------------------------ ATOM   66 ------------------------
     Tr[ns( 66)] =   1.00000
     eigenvalues:
       0.167  0.167  0.167
     eigenvectors (columns):
       1.000  0.000  0.000
       0.000  1.000  0.000
       0.000  0.000  1.000
     occupation matrix ns (before diag.):
       0.167  0.000  0.000
       0.000  0.167  0.000
       0.000  0.000  0.167
     ------------------------ ATOM   67 ------------------------
     Tr[ns( 67)] =   1.00000
     eigenvalues:
       0.167  0.167  0.167
     eigenvectors (columns):
       1.000  0.000  0.000
       0.000  1.000  0.000
       0.000  0.000  1.000
     occupation matrix ns (before diag.):
       0.167  0.000  0.000
       0.000  0.167  0.000
       0.000  0.000  0.167
     ------------------------ ATOM   68 ------------------------
     Tr[ns( 68)] =   1.00000
     eigenvalues:
       0.167  0.167  0.167
     eigenvectors (columns):
       1.000  0.000  0.000
       0.000  1.000  0.000
       0.000  0.000  1.000
     occupation matrix ns (before diag.):
       0.167  0.000  0.000
       0.000  0.167  0.000
       0.000  0.000  0.167
     ------------------------ ATOM   69 ------------------------
     Tr[ns( 69)] =   3.00000
     eigenvalues:
       0.500  0.500  0.500
     eigenvectors (columns):
       1.000  0.000  0.000
       0.000  1.000  0.000
       0.000  0.000  1.000
     occupation matrix ns (before diag.):
       0.500  0.000  0.000
       0.000  0.500  0.000
       0.000  0.000  0.500
     ------------------------ ATOM   70 ------------------------
     Tr[ns( 70)] =   3.00000
     eigenvalues:
       0.500  0.500  0.500
     eigenvectors (columns):
       1.000  0.000  0.000
       0.000  1.000  0.000
       0.000  0.000  1.000
     occupation matrix ns (before diag.):
       0.500  0.000  0.000
       0.000  0.500  0.000
       0.000  0.000  0.500
     ------------------------ ATOM   71 ------------------------
     Tr[ns( 71)] =   3.00000
     eigenvalues:
       0.500  0.500  0.500
     eigenvectors (columns):
       1.000  0.000  0.000
       0.000  1.000  0.000
       0.000  0.000  1.000
     occupation matrix ns (before diag.):
       0.500  0.000  0.000
       0.000  0.500  0.000
       0.000  0.000  0.500
     ------------------------ ATOM   72 ------------------------
     Tr[ns( 72)] =   3.00000
     eigenvalues:
       0.500  0.500  0.500
     eigenvectors (columns):
       1.000  0.000  0.000
       0.000  1.000  0.000
       0.000  0.000  1.000
     occupation matrix ns (before diag.):
       0.500  0.000  0.000
       0.000  0.500  0.000
       0.000  0.000  0.500
     ------------------------ ATOM   73 ------------------------
     Tr[ns( 73)] =   1.00000
     eigenvalues:
       0.167  0.167  0.167
     eigenvectors (columns):
       1.000  0.000  0.000
       0.000  1.000  0.000
       0.000  0.000  1.000
     occupation matrix ns (before diag.):
       0.167  0.000  0.000
       0.000  0.167  0.000
       0.000  0.000  0.167
     ------------------------ ATOM   74 ------------------------
     Tr[ns( 74)] =   1.00000
     eigenvalues:
       0.167  0.167  0.167
     eigenvectors (columns):
       1.000  0.000  0.000
       0.000  1.000  0.000
       0.000  0.000  1.000
     occupation matrix ns (before diag.):
       0.167  0.000  0.000
       0.000  0.167  0.000
       0.000  0.000  0.167
     ------------------------ ATOM   75 ------------------------
     Tr[ns( 75)] =   1.00000
     eigenvalues:
       0.167  0.167  0.167
     eigenvectors (columns):
       1.000  0.000  0.000
       0.000  1.000  0.000
       0.000  0.000  1.000
     occupation matrix ns (before diag.):
       0.167  0.000  0.000
       0.000  0.167  0.000
       0.000  0.000  0.167
     ------------------------ ATOM   76 ------------------------
     Tr[ns( 76)] =   1.00000
     eigenvalues:
       0.167  0.167  0.167
     eigenvectors (columns):
       1.000  0.000  0.000
       0.000  1.000  0.000
       0.000  0.000  1.000
     occupation matrix ns (before diag.):
       0.167  0.000  0.000
       0.000  0.167  0.000
       0.000  0.000  0.167
     ------------------------ ATOM   77 ------------------------
     Tr[ns( 77)] =   3.00000
     eigenvalues:
       0.500  0.500  0.500
     eigenvectors (columns):
       1.000  0.000  0.000
       0.000  1.000  0.000
       0.000  0.000  1.000
     occupation matrix ns (before diag.):
       0.500  0.000  0.000
       0.000  0.500  0.000
       0.000  0.000  0.500
     ------------------------ ATOM   78 ------------------------
     Tr[ns( 78)] =   3.00000
     eigenvalues:
       0.500  0.500  0.500
     eigenvectors (columns):
       1.000  0.000  0.000
       0.000  1.000  0.000
       0.000  0.000  1.000
     occupation matrix ns (before diag.):
       0.500  0.000  0.000
       0.000  0.500  0.000
       0.000  0.000  0.500
     ------------------------ ATOM   79 ------------------------
     Tr[ns( 79)] =   3.00000
     eigenvalues:
       0.500  0.500  0.500
     eigenvectors (columns):
       1.000  0.000  0.000
       0.000  1.000  0.000
       0.000  0.000  1.000
     occupation matrix ns (before diag.):
       0.500  0.000  0.000
       0.000  0.500  0.000
       0.000  0.000  0.500
     ------------------------ ATOM   80 ------------------------
     Tr[ns( 80)] =   3.00000
     eigenvalues:
       0.500  0.500  0.500
     eigenvectors (columns):
       1.000  0.000  0.000
       0.000  1.000  0.000
       0.000  0.000  1.000
     occupation matrix ns (before diag.):
       0.500  0.000  0.000
       0.000  0.500  0.000
       0.000  0.000  0.500
     ------------------------ ATOM   81 ------------------------
     Tr[ns( 81)] =   1.00000
     eigenvalues:
       0.167  0.167  0.167
     eigenvectors (columns):
       1.000  0.000  0.000
       0.000  1.000  0.000
       0.000  0.000  1.000
     occupation matrix ns (before diag.):
       0.167  0.000  0.000
       0.000  0.167  0.000
       0.000  0.000  0.167
     ------------------------ ATOM   82 ------------------------
     Tr[ns( 82)] =   1.00000
     eigenvalues:
       0.167  0.167  0.167
     eigenvectors (columns):
       1.000  0.000  0.000
       0.000  1.000  0.000
       0.000  0.000  1.000
     occupation matrix ns (before diag.):
       0.167  0.000  0.000
       0.000  0.167  0.000
       0.000  0.000  0.167
     ------------------------ ATOM   83 ------------------------
     Tr[ns( 83)] =   1.00000
     eigenvalues:
       0.167  0.167  0.167
     eigenvectors (columns):
       1.000  0.000  0.000
       0.000  1.000  0.000
       0.000  0.000  1.000
     occupation matrix ns (before diag.):
       0.167  0.000  0.000
       0.000  0.167  0.000
       0.000  0.000  0.167
     ------------------------ ATOM   84 ------------------------
     Tr[ns( 84)] =   1.00000
     eigenvalues:
       0.167  0.167  0.167
     eigenvectors (columns):
       1.000  0.000  0.000
       0.000  1.000  0.000
       0.000  0.000  1.000
     occupation matrix ns (before diag.):
       0.167  0.000  0.000
       0.000  0.167  0.000
       0.000  0.000  0.167
     ------------------------ ATOM   85 ------------------------
     Tr[ns( 85)] =   3.00000
     eigenvalues:
       0.500  0.500  0.500
     eigenvectors (columns):
       1.000  0.000  0.000
       0.000  1.000  0.000
       0.000  0.000  1.000
     occupation matrix ns (before diag.):
       0.500  0.000  0.000
       0.000  0.500  0.000
       0.000  0.000  0.500
     ------------------------ ATOM   86 ------------------------
     Tr[ns( 86)] =   3.00000
     eigenvalues:
       0.500  0.500  0.500
     eigenvectors (columns):
       1.000  0.000  0.000
       0.000  1.000  0.000
       0.000  0.000  1.000
     occupation matrix ns (before diag.):
       0.500  0.000  0.000
       0.000  0.500  0.000
       0.000  0.000  0.500
     ------------------------ ATOM   87 ------------------------
     Tr[ns( 87)] =   3.00000
     eigenvalues:
       0.500  0.500  0.500
     eigenvectors (columns):
       1.000  0.000  0.000
       0.000  1.000  0.000
       0.000  0.000  1.000
     occupation matrix ns (before diag.):
       0.500  0.000  0.000
       0.000  0.500  0.000
       0.000  0.000  0.500
     ------------------------ ATOM   88 ------------------------
     Tr[ns( 88)] =   3.00000
     eigenvalues:
       0.500  0.500  0.500
     eigenvectors (columns):
       1.000  0.000  0.000
       0.000  1.000  0.000
       0.000  0.000  1.000
     occupation matrix ns (before diag.):
       0.500  0.000  0.000
       0.000  0.500  0.000
       0.000  0.000  0.500
     ------------------------ ATOM   89 ------------------------
     Tr[ns( 89)] =   1.00000
     eigenvalues:
       0.167  0.167  0.167
     eigenvectors (columns):
       1.000  0.000  0.000
       0.000  1.000  0.000
       0.000  0.000  1.000
     occupation matrix ns (before diag.):
       0.167  0.000  0.000
       0.000  0.167  0.000
       0.000  0.000  0.167
     ------------------------ ATOM   90 ------------------------
     Tr[ns( 90)] =   1.00000
     eigenvalues:
       0.167  0.167  0.167
     eigenvectors (columns):
       1.000  0.000  0.000
       0.000  1.000  0.000
       0.000  0.000  1.000
     occupation matrix ns (before diag.):
       0.167  0.000  0.000
       0.000  0.167  0.000
       0.000  0.000  0.167
     ------------------------ ATOM   91 ------------------------
     Tr[ns( 91)] =   1.00000
     eigenvalues:
       0.167  0.167  0.167
     eigenvectors (columns):
       1.000  0.000  0.000
       0.000  1.000  0.000
       0.000  0.000  1.000
     occupation matrix ns (before diag.):
       0.167  0.000  0.000
       0.000  0.167  0.000
       0.000  0.000  0.167
     ------------------------ ATOM   92 ------------------------
     Tr[ns( 92)] =   1.00000
     eigenvalues:
       0.167  0.167  0.167
     eigenvectors (columns):
       1.000  0.000  0.000
       0.000  1.000  0.000
       0.000  0.000  1.000
     occupation matrix ns (before diag.):
       0.167  0.000  0.000
       0.000  0.167  0.000
       0.000  0.000  0.167
     ------------------------ ATOM   93 ------------------------
     Tr[ns( 93)] =   3.00000
     eigenvalues:
       0.500  0.500  0.500
     eigenvectors (columns):
       1.000  0.000  0.000
       0.000  1.000  0.000
       0.000  0.000  1.000
     occupation matrix ns (before diag.):
       0.500  0.000  0.000
       0.000  0.500  0.000
       0.000  0.000  0.500
     ------------------------ ATOM   94 ------------------------
     Tr[ns( 94)] =   3.00000
     eigenvalues:
       0.500  0.500  0.500
     eigenvectors (columns):
       1.000  0.000  0.000
       0.000  1.000  0.000
       0.000  0.000  1.000
     occupation matrix ns (before diag.):
       0.500  0.000  0.000
       0.000  0.500  0.000
       0.000  0.000  0.500
     ------------------------ ATOM   95 ------------------------
     Tr[ns( 95)] =   3.00000
     eigenvalues:
       0.500  0.500  0.500
     eigenvectors (columns):
       1.000  0.000  0.000
       0.000  1.000  0.000
       0.000  0.000  1.000
     occupation matrix ns (before diag.):
       0.500  0.000  0.000
       0.000  0.500  0.000
       0.000  0.000  0.500
     ------------------------ ATOM   96 ------------------------
     Tr[ns( 96)] =   3.00000
     eigenvalues:
       0.500  0.500  0.500
     eigenvectors (columns):
       1.000  0.000  0.000
       0.000  1.000  0.000
       0.000  0.000  1.000
     occupation matrix ns (before diag.):
       0.500  0.000  0.000
       0.000  0.500  0.000
       0.000  0.000  0.500
     ------------------------ ATOM   97 ------------------------
     Tr[ns( 97)] =   1.00000
     eigenvalues:
       0.167  0.167  0.167
     eigenvectors (columns):
       1.000  0.000  0.000
       0.000  1.000  0.000
       0.000  0.000  1.000
     occupation matrix ns (before diag.):
       0.167  0.000  0.000
       0.000  0.167  0.000
       0.000  0.000  0.167
     ------------------------ ATOM   98 ------------------------
     Tr[ns( 98)] =   1.00000
     eigenvalues:
       0.167  0.167  0.167
     eigenvectors (columns):
       1.000  0.000  0.000
       0.000  1.000  0.000
       0.000  0.000  1.000
     occupation matrix ns (before diag.):
       0.167  0.000  0.000
       0.000  0.167  0.000
       0.000  0.000  0.167
     ------------------------ ATOM   99 ------------------------
     Tr[ns( 99)] =   1.00000
     eigenvalues:
       0.167  0.167  0.167
     eigenvectors (columns):
       1.000  0.000  0.000
       0.000  1.000  0.000
       0.000  0.000  1.000
     occupation matrix ns (before diag.):
       0.167  0.000  0.000
       0.000  0.167  0.000
       0.000  0.000  0.167
     ------------------------ ATOM  100 ------------------------
     Tr[ns(100)] =   1.00000
     eigenvalues:
       0.167  0.167  0.167
     eigenvectors (columns):
       1.000  0.000  0.000
       0.000  1.000  0.000
       0.000  0.000  1.000
     occupation matrix ns (before diag.):
       0.167  0.000  0.000
       0.000  0.167  0.000
       0.000  0.000  0.167
     ------------------------ ATOM  101 ------------------------
     Tr[ns(101)] =   3.00000
     eigenvalues:
       0.500  0.500  0.500
     eigenvectors (columns):
       1.000  0.000  0.000
       0.000  1.000  0.000
       0.000  0.000  1.000
     occupation matrix ns (before diag.):
       0.500  0.000  0.000
       0.000  0.500  0.000
       0.000  0.000  0.500
     ------------------------ ATOM  102 ------------------------
     Tr[ns(102)] =   3.00000
     eigenvalues:
       0.500  0.500  0.500
     eigenvectors (columns):
       1.000  0.000  0.000
       0.000  1.000  0.000
       0.000  0.000  1.000
     occupation matrix ns (before diag.):
       0.500  0.000  0.000
       0.000  0.500  0.000
       0.000  0.000  0.500
     ------------------------ ATOM  103 ------------------------
     Tr[ns(103)] =   3.00000
     eigenvalues:
       0.500  0.500  0.500
     eigenvectors (columns):
       1.000  0.000  0.000
       0.000  1.000  0.000
       0.000  0.000  1.000
     occupation matrix ns (before diag.):
       0.500  0.000  0.000
       0.000  0.500  0.000
       0.000  0.000  0.500
     ------------------------ ATOM  104 ------------------------
     Tr[ns(104)] =   3.00000
     eigenvalues:
       0.500  0.500  0.500
     eigenvectors (columns):
       1.000  0.000  0.000
       0.000  1.000  0.000
       0.000  0.000  1.000
     occupation matrix ns (before diag.):
       0.500  0.000  0.000
       0.000  0.500  0.000
       0.000  0.000  0.500
     ------------------------ ATOM  105 ------------------------
     Tr[ns(105)] =   1.00000
     eigenvalues:
       0.167  0.167  0.167
     eigenvectors (columns):
       1.000  0.000  0.000
       0.000  1.000  0.000
       0.000  0.000  1.000
     occupation matrix ns (before diag.):
       0.167  0.000  0.000
       0.000  0.167  0.000
       0.000  0.000  0.167
     ------------------------ ATOM  106 ------------------------
     Tr[ns(106)] =   1.00000
     eigenvalues:
       0.167  0.167  0.167
     eigenvectors (columns):
       1.000  0.000  0.000
       0.000  1.000  0.000
       0.000  0.000  1.000
     occupation matrix ns (before diag.):
       0.167  0.000  0.000
       0.000  0.167  0.000
       0.000  0.000  0.167
     ------------------------ ATOM  107 ------------------------
     Tr[ns(107)] =   1.00000
     eigenvalues:
       0.167  0.167  0.167
     eigenvectors (columns):
       1.000  0.000  0.000
       0.000  1.000  0.000
       0.000  0.000  1.000
     occupation matrix ns (before diag.):
       0.167  0.000  0.000
       0.000  0.167  0.000
       0.000  0.000  0.167
     ------------------------ ATOM  108 ------------------------
     Tr[ns(108)] =   1.00000
     eigenvalues:
       0.167  0.167  0.167
     eigenvectors (columns):
       1.000  0.000  0.000
       0.000  1.000  0.000
       0.000  0.000  1.000
     occupation matrix ns (before diag.):
       0.167  0.000  0.000
       0.000  0.167  0.000
       0.000  0.000  0.167
     ------------------------ ATOM  109 ------------------------
     Tr[ns(109)] =   3.00000
     eigenvalues:
       0.500  0.500  0.500
     eigenvectors (columns):
       1.000  0.000  0.000
       0.000  1.000  0.000
       0.000  0.000  1.000
     occupation matrix ns (before diag.):
       0.500  0.000  0.000
       0.000  0.500  0.000
       0.000  0.000  0.500
     ------------------------ ATOM  110 ------------------------
     Tr[ns(110)] =   3.00000
     eigenvalues:
       0.500  0.500  0.500
     eigenvectors (columns):
       1.000  0.000  0.000
       0.000  1.000  0.000
       0.000  0.000  1.000
     occupation matrix ns (before diag.):
       0.500  0.000  0.000
       0.000  0.500  0.000
       0.000  0.000  0.500
     ------------------------ ATOM  111 ------------------------
     Tr[ns(111)] =   3.00000
     eigenvalues:
       0.500  0.500  0.500
     eigenvectors (columns):
       1.000  0.000  0.000
       0.000  1.000  0.000
       0.000  0.000  1.000
     occupation matrix ns (before diag.):
       0.500  0.000  0.000
       0.000  0.500  0.000
       0.000  0.000  0.500
     ------------------------ ATOM  112 ------------------------
     Tr[ns(112)] =   3.00000
     eigenvalues:
       0.500  0.500  0.500
     eigenvectors (columns):
       1.000  0.000  0.000
       0.000  1.000  0.000
       0.000  0.000  1.000
     occupation matrix ns (before diag.):
       0.500  0.000  0.000
       0.000  0.500  0.000
       0.000  0.000  0.500
     ------------------------ ATOM  113 ------------------------
     Tr[ns(113)] =   1.00000
     eigenvalues:
       0.167  0.167  0.167
     eigenvectors (columns):
       1.000  0.000  0.000
       0.000  1.000  0.000
       0.000  0.000  1.000
     occupation matrix ns (before diag.):
       0.167  0.000  0.000
       0.000  0.167  0.000
       0.000  0.000  0.167
     ------------------------ ATOM  114 ------------------------
     Tr[ns(114)] =   1.00000
     eigenvalues:
       0.167  0.167  0.167
     eigenvectors (columns):
       1.000  0.000  0.000
       0.000  1.000  0.000
       0.000  0.000  1.000
     occupation matrix ns (before diag.):
       0.167  0.000  0.000
       0.000  0.167  0.000
       0.000  0.000  0.167
     ------------------------ ATOM  115 ------------------------
     Tr[ns(115)] =   1.00000
     eigenvalues:
       0.167  0.167  0.167
     eigenvectors (columns):
       1.000  0.000  0.000
       0.000  1.000  0.000
       0.000  0.000  1.000
     occupation matrix ns (before diag.):
       0.167  0.000  0.000
       0.000  0.167  0.000
       0.000  0.000  0.167
     ------------------------ ATOM  116 ------------------------
     Tr[ns(116)] =   1.00000
     eigenvalues:
       0.167  0.167  0.167
     eigenvectors (columns):
       1.000  0.000  0.000
       0.000  1.000  0.000
       0.000  0.000  1.000
     occupation matrix ns (before diag.):
       0.167  0.000  0.000
       0.000  0.167  0.000
       0.000  0.000  0.167
     ------------------------ ATOM  117 ------------------------
     Tr[ns(117)] =   3.00000
     eigenvalues:
       0.500  0.500  0.500
     eigenvectors (columns):
       1.000  0.000  0.000
       0.000  1.000  0.000
       0.000  0.000  1.000
     occupation matrix ns (before diag.):
       0.500  0.000  0.000
       0.000  0.500  0.000
       0.000  0.000  0.500
     ------------------------ ATOM  118 ------------------------
     Tr[ns(118)] =   3.00000
     eigenvalues:
       0.500  0.500  0.500
     eigenvectors (columns):
       1.000  0.000  0.000
       0.000  1.000  0.000
       0.000  0.000  1.000
     occupation matrix ns (before diag.):
       0.500  0.000  0.000
       0.000  0.500  0.000
       0.000  0.000  0.500
     ------------------------ ATOM  119 ------------------------
     Tr[ns(119)] =   3.00000
     eigenvalues:
       0.500  0.500  0.500
     eigenvectors (columns):
       1.000  0.000  0.000
       0.000  1.000  0.000
       0.000  0.000  1.000
     occupation matrix ns (before diag.):
       0.500  0.000  0.000
       0.000  0.500  0.000
       0.000  0.000  0.500
     ------------------------ ATOM  120 ------------------------
     Tr[ns(120)] =   3.00000
     eigenvalues:
       0.500  0.500  0.500
     eigenvectors (columns):
       1.000  0.000  0.000
       0.000  1.000  0.000
       0.000  0.000  1.000
     occupation matrix ns (before diag.):
       0.500  0.000  0.000
       0.000  0.500  0.000
       0.000  0.000  0.500
     ------------------------ ATOM  121 ------------------------
     Tr[ns(121)] =   1.00000
     eigenvalues:
       0.167  0.167  0.167
     eigenvectors (columns):
       1.000  0.000  0.000
       0.000  1.000  0.000
       0.000  0.000  1.000
     occupation matrix ns (before diag.):
       0.167  0.000  0.000
       0.000  0.167  0.000
       0.000  0.000  0.167
     ------------------------ ATOM  122 ------------------------
     Tr[ns(122)] =   1.00000
     eigenvalues:
       0.167  0.167  0.167
     eigenvectors (columns):
       1.000  0.000  0.000
       0.000  1.000  0.000
       0.000  0.000  1.000
     occupation matrix ns (before diag.):
       0.167  0.000  0.000
       0.000  0.167  0.000
       0.000  0.000  0.167
     ------------------------ ATOM  123 ------------------------
     Tr[ns(123)] =   1.00000
     eigenvalues:
       0.167  0.167  0.167
     eigenvectors (columns):
       1.000  0.000  0.000
       0.000  1.000  0.000
       0.000  0.000  1.000
     occupation matrix ns (before diag.):
       0.167  0.000  0.000
       0.000  0.167  0.000
       0.000  0.000  0.167
     ------------------------ ATOM  124 ------------------------
     Tr[ns(124)] =   1.00000
     eigenvalues:
       0.167  0.167  0.167
     eigenvectors (columns):
       1.000  0.000  0.000
       0.000  1.000  0.000
       0.000  0.000  1.000
     occupation matrix ns (before diag.):
       0.167  0.000  0.000
       0.000  0.167  0.000
       0.000  0.000  0.167
     ------------------------ ATOM  125 ------------------------
     Tr[ns(125)] =   3.00000
     eigenvalues:
       0.500  0.500  0.500
     eigenvectors (columns):
       1.000  0.000  0.000
       0.000  1.000  0.000
       0.000  0.000  1.000
     occupation matrix ns (before diag.):
       0.500  0.000  0.000
       0.000  0.500  0.000
       0.000  0.000  0.500
     ------------------------ ATOM  126 ------------------------
     Tr[ns(126)] =   3.00000
     eigenvalues:
       0.500  0.500  0.500
     eigenvectors (columns):
       1.000  0.000  0.000
       0.000  1.000  0.000
       0.000  0.000  1.000
     occupation matrix ns (before diag.):
       0.500  0.000  0.000
       0.000  0.500  0.000
       0.000  0.000  0.500
     ------------------------ ATOM  127 ------------------------
     Tr[ns(127)] =   3.00000
     eigenvalues:
       0.500  0.500  0.500
     eigenvectors (columns):
       1.000  0.000  0.000
       0.000  1.000  0.000
       0.000  0.000  1.000
     occupation matrix ns (before diag.):
       0.500  0.000  0.000
       0.000  0.500  0.000
       0.000  0.000  0.500
     ------------------------ ATOM  128 ------------------------
     Tr[ns(128)] =   3.00000
     eigenvalues:
       0.500  0.500  0.500
     eigenvectors (columns):
       1.000  0.000  0.000
       0.000  1.000  0.000
       0.000  0.000  1.000
     occupation matrix ns (before diag.):
       0.500  0.000  0.000
       0.000  0.500  0.000
       0.000  0.000  0.500
     ------------------------ ATOM  129 ------------------------
     Tr[ns(129)] =   1.00000
     eigenvalues:
       0.167  0.167  0.167
     eigenvectors (columns):
       1.000  0.000  0.000
       0.000  1.000  0.000
       0.000  0.000  1.000
     occupation matrix ns (before diag.):
       0.167  0.000  0.000
       0.000  0.167  0.000
       0.000  0.000  0.167
     ------------------------ ATOM  130 ------------------------
     Tr[ns(130)] =   1.00000
     eigenvalues:
       0.167  0.167  0.167
     eigenvectors (columns):
       1.000  0.000  0.000
       0.000  1.000  0.000
       0.000  0.000  1.000
     occupation matrix ns (before diag.):
       0.167  0.000  0.000
       0.000  0.167  0.000
       0.000  0.000  0.167
     ------------------------ ATOM  131 ------------------------
     Tr[ns(131)] =   1.00000
     eigenvalues:
       0.167  0.167  0.167
     eigenvectors (columns):
       1.000  0.000  0.000
       0.000  1.000  0.000
       0.000  0.000  1.000
     occupation matrix ns (before diag.):
       0.167  0.000  0.000
       0.000  0.167  0.000
       0.000  0.000  0.167
     ------------------------ ATOM  132 ------------------------
     Tr[ns(132)] =   1.00000
     eigenvalues:
       0.167  0.167  0.167
     eigenvectors (columns):
       1.000  0.000  0.000
       0.000  1.000  0.000
       0.000  0.000  1.000
     occupation matrix ns (before diag.):
       0.167  0.000  0.000
       0.000  0.167  0.000
       0.000  0.000  0.167
     ------------------------ ATOM  133 ------------------------
     Tr[ns(133)] =   3.00000
     eigenvalues:
       0.500  0.500  0.500
     eigenvectors (columns):
       1.000  0.000  0.000
       0.000  1.000  0.000
       0.000  0.000  1.000
     occupation matrix ns (before diag.):
       0.500  0.000  0.000
       0.000  0.500  0.000
       0.000  0.000  0.500
     ------------------------ ATOM  134 ------------------------
     Tr[ns(134)] =   3.00000
     eigenvalues:
       0.500  0.500  0.500
     eigenvectors (columns):
       1.000  0.000  0.000
       0.000  1.000  0.000
       0.000  0.000  1.000
     occupation matrix ns (before diag.):
       0.500  0.000  0.000
       0.000  0.500  0.000
       0.000  0.000  0.500
     ------------------------ ATOM  135 ------------------------
     Tr[ns(135)] =   3.00000
     eigenvalues:
       0.500  0.500  0.500
     eigenvectors (columns):
       1.000  0.000  0.000
       0.000  1.000  0.000
       0.000  0.000  1.000
     occupation matrix ns (before diag.):
       0.500  0.000  0.000
       0.000  0.500  0.000
       0.000  0.000  0.500
     ------------------------ ATOM  136 ------------------------
     Tr[ns(136)] =   3.00000
     eigenvalues:
       0.500  0.500  0.500
     eigenvectors (columns):
       1.000  0.000  0.000
       0.000  1.000  0.000
       0.000  0.000  1.000
     occupation matrix ns (before diag.):
       0.500  0.000  0.000
       0.000  0.500  0.000
       0.000  0.000  0.500
     ------------------------ ATOM  137 ------------------------
     Tr[ns(137)] =   1.00000
     eigenvalues:
       0.167  0.167  0.167
     eigenvectors (columns):
       1.000  0.000  0.000
       0.000  1.000  0.000
       0.000  0.000  1.000
     occupation matrix ns (before diag.):
       0.167  0.000  0.000
       0.000  0.167  0.000
       0.000  0.000  0.167
     ------------------------ ATOM  138 ------------------------
     Tr[ns(138)] =   1.00000
     eigenvalues:
       0.167  0.167  0.167
     eigenvectors (columns):
       1.000  0.000  0.000
       0.000  1.000  0.000
       0.000  0.000  1.000
     occupation matrix ns (before diag.):
       0.167  0.000  0.000
       0.000  0.167  0.000
       0.000  0.000  0.167
     ------------------------ ATOM  139 ------------------------
     Tr[ns(139)] =   1.00000
     eigenvalues:
       0.167  0.167  0.167
     eigenvectors (columns):
       1.000  0.000  0.000
       0.000  1.000  0.000
       0.000  0.000  1.000
     occupation matrix ns (before diag.):
       0.167  0.000  0.000
       0.000  0.167  0.000
       0.000  0.000  0.167
     ------------------------ ATOM  140 ------------------------
     Tr[ns(140)] =   1.00000
     eigenvalues:
       0.167  0.167  0.167
     eigenvectors (columns):
       1.000  0.000  0.000
       0.000  1.000  0.000
       0.000  0.000  1.000
     occupation matrix ns (before diag.):
       0.167  0.000  0.000
       0.000  0.167  0.000
       0.000  0.000  0.167
     ------------------------ ATOM  141 ------------------------
     Tr[ns(141)] =   3.00000
     eigenvalues:
       0.500  0.500  0.500
     eigenvectors (columns):
       1.000  0.000  0.000
       0.000  1.000  0.000
       0.000  0.000  1.000
     occupation matrix ns (before diag.):
       0.500  0.000  0.000
       0.000  0.500  0.000
       0.000  0.000  0.500
     ------------------------ ATOM  142 ------------------------
     Tr[ns(142)] =   3.00000
     eigenvalues:
       0.500  0.500  0.500
     eigenvectors (columns):
       1.000  0.000  0.000
       0.000  1.000  0.000
       0.000  0.000  1.000
     occupation matrix ns (before diag.):
       0.500  0.000  0.000
       0.000  0.500  0.000
       0.000  0.000  0.500
     ------------------------ ATOM  143 ------------------------
     Tr[ns(143)] =   3.00000
     eigenvalues:
       0.500  0.500  0.500
     eigenvectors (columns):
       1.000  0.000  0.000
       0.000  1.000  0.000
       0.000  0.000  1.000
     occupation matrix ns (before diag.):
       0.500  0.000  0.000
       0.000  0.500  0.000
       0.000  0.000  0.500
     ------------------------ ATOM  144 ------------------------
     Tr[ns(144)] =   3.00000
     eigenvalues:
       0.500  0.500  0.500
     eigenvectors (columns):
       1.000  0.000  0.000
       0.000  1.000  0.000
       0.000  0.000  1.000
     occupation matrix ns (before diag.):
       0.500  0.000  0.000
       0.000  0.500  0.000
       0.000  0.000  0.500
     ------------------------ ATOM  145 ------------------------
     Tr[ns(145)] =   1.00000
     eigenvalues:
       0.167  0.167  0.167
     eigenvectors (columns):
       1.000  0.000  0.000
       0.000  1.000  0.000
       0.000  0.000  1.000
     occupation matrix ns (before diag.):
       0.167  0.000  0.000
       0.000  0.167  0.000
       0.000  0.000  0.167
     ------------------------ ATOM  146 ------------------------
     Tr[ns(146)] =   1.00000
     eigenvalues:
       0.167  0.167  0.167
     eigenvectors (columns):
       1.000  0.000  0.000
       0.000  1.000  0.000
       0.000  0.000  1.000
     occupation matrix ns (before diag.):
       0.167  0.000  0.000
       0.000  0.167  0.000
       0.000  0.000  0.167
     ------------------------ ATOM  147 ------------------------
     Tr[ns(147)] =   1.00000
     eigenvalues:
       0.167  0.167  0.167
     eigenvectors (columns):
       1.000  0.000  0.000
       0.000  1.000  0.000
       0.000  0.000  1.000
     occupation matrix ns (before diag.):
       0.167  0.000  0.000
       0.000  0.167  0.000
       0.000  0.000  0.167
     ------------------------ ATOM  148 ------------------------
     Tr[ns(148)] =   1.00000
     eigenvalues:
       0.167  0.167  0.167
     eigenvectors (columns):
       1.000  0.000  0.000
       0.000  1.000  0.000
       0.000  0.000  1.000
     occupation matrix ns (before diag.):
       0.167  0.000  0.000
       0.000  0.167  0.000
       0.000  0.000  0.167
     ------------------------ ATOM  149 ------------------------
     Tr[ns(149)] =   3.00000
     eigenvalues:
       0.500  0.500  0.500
     eigenvectors (columns):
       1.000  0.000  0.000
       0.000  1.000  0.000
       0.000  0.000  1.000
     occupation matrix ns (before diag.):
       0.500  0.000  0.000
       0.000  0.500  0.000
       0.000  0.000  0.500
     ------------------------ ATOM  150 ------------------------
     Tr[ns(150)] =   3.00000
     eigenvalues:
       0.500  0.500  0.500
     eigenvectors (columns):
       1.000  0.000  0.000
       0.000  1.000  0.000
       0.000  0.000  1.000
     occupation matrix ns (before diag.):
       0.500  0.000  0.000
       0.000  0.500  0.000
       0.000  0.000  0.500
     ------------------------ ATOM  151 ------------------------
     Tr[ns(151)] =   3.00000
     eigenvalues:
       0.500  0.500  0.500
     eigenvectors (columns):
       1.000  0.000  0.000
       0.000  1.000  0.000
       0.000  0.000  1.000
     occupation matrix ns (before diag.):
       0.500  0.000  0.000
       0.000  0.500  0.000
       0.000  0.000  0.500
     ------------------------ ATOM  152 ------------------------
[...]
   -19.6960 -19.6960 -19.6959 -19.6958 -19.6956 -19.6955 -19.6953 -19.6953
   -19.6951 -19.6949 -19.6948 -19.6948 -19.6947 -19.6946 -19.6944 -19.6943
   -19.6941 -19.6936 -19.6934 -19.6933 -19.6932 -19.6932 -19.6931 -19.6930
   -19.6929 -19.6927 -19.6926 -19.6925 -19.6925 -19.6924 -19.6923 -19.6923
   -19.6922 -19.6921 -19.6920 -19.6919 -19.6915 -19.6911 -19.6910 -19.6909
   -19.6908 -19.6907 -19.6906 -19.6906 -19.6903 -19.6902 -19.6901 -19.6899
   -19.6897 -19.6895 -19.6893 -19.6890 -19.6889 -19.6888 -19.6888 -19.6885
   -19.6885 -19.6885 -19.6883 -19.6883 -19.6881 -19.6870 -19.6869 -19.6869
   -19.6867 -19.6867 -19.6863 -19.6863 -19.6861 -19.6857 -19.6856 -19.6856
   -19.6856 -19.6854 -19.6854 -19.6854 -19.6852 -19.6851 -19.6850 -19.6849
   -19.6847 -19.6842 -19.6840 -19.6840 -19.6839 -19.6838 -19.6835 -19.6833
   -19.6831 -19.6830 -19.6830 -19.6830 -19.6829 -19.6827 -19.6826 -19.6826
   -19.6823 -19.6822 -19.6819 -19.6819 -19.6816 -19.6815 -19.6813 -19.6813
   -19.6812 -19.6812 -19.6810 -19.6810 -19.6809 -19.6809 -19.6808 -19.6807
   -19.6807 -19.6805 -19.6804 -19.6801 -19.6801 -19.6800 -19.6798 -19.6793
   -19.6792 -19.6788 -19.6784 -19.6784 -19.6782 -19.6781 -19.6780 -19.6779
   -19.6775 -19.6775 -19.6773 -19.6771 -19.6770 -19.6768 -19.6768 -19.6766
   -19.6765 -19.6763 -19.6761 -19.6760 -19.6758 -19.6757 -19.6756 -19.6755
   -19.6750 -19.6750 -19.6747 -19.6739 -19.6738 -19.6736 -19.6726 -19.6725
   -19.6724 -19.6722 -19.6717 -19.6717 -19.6716 -19.6715 -19.6715 -19.6713
   -19.6710 -19.6709 -19.6706 -19.6704 -19.6702 -19.6699 -19.6688 -19.6687
   -19.6686 -19.6686 -19.6683 -19.6676 -19.6675 -19.6674 -19.6673 -19.6666
   -19.6661 -19.6661 -19.6656 -19.6647 -19.6646 -19.6636 -19.6632 -19.6629
   -19.6620 -19.6617 -19.6610 -19.6603 -19.6601 -19.6589 -19.6579 -19.6567
   -19.6551 -19.6545 -19.6523 -19.6520 -19.6512 -19.6509 -19.6503 -19.6499
   -19.6495 -19.6486 -19.6464 -19.6403  -7.4953  -7.4891  -7.4839  -7.4441
    -7.4430  -7.4405  -7.4397  -7.4373  -7.4323  -7.4305  -7.4292  -7.4277
    -7.4216  -7.4197  -7.4192  -7.4187  -7.4158  -7.4141  -7.4129  -7.4100
    -7.4094  -7.4070  -7.4052  -7.4033  -7.4026  -7.4010  -7.3988  -7.3973
    -7.3958  -7.3949  -7.3940  -7.3930  -7.3929  -7.3911  -7.3894  -7.3878
    -7.3868  -7.3862  -7.3839  -7.3834  -7.3824  -7.3817  -7.3810  -7.3777
    -7.3756  -7.3746  -7.3738  -7.3734  -7.3719  -7.3713  -7.3690  -7.3683
    -7.3675  -7.3655  -7.3643  -7.3632  -7.3622  -7.3612  -7.3609  -7.3585
    -7.3581  -7.3578  -7.3574  -7.3567  -7.3566  -7.3563  -7.3544  -7.3542
    -7.3540  -7.3533  -7.3525  -7.3510  -7.3508  -7.3504  -7.3496  -7.3488
    -7.3485  -7.3468  -7.3464  -7.3452  -7.3448  -7.3445  -7.3435  -7.3426
    -7.3423  -7.3416  -7.3402  -7.3398  -7.3387  -7.3377  -7.3375  -7.3367
    -7.3357  -7.3356  -7.3353  -7.3351  -7.3338  -7.3325  -7.3317  -7.3312
    -7.3308  -7.3305  -7.3277  -7.3273  -7.3266  -7.3264  -7.3260  -7.3258
    -7.3257  -7.3253  -7.3246  -7.3236  -7.3232  -7.3228  -7.3226  -7.3222
    -7.3222  -7.3216  -7.3206  -7.3201  -7.3199  -7.3191  -7.3185  -7.3182
    -7.3175  -7.3166  -7.3162  -7.3158  -7.3156  -7.3152  -7.3143  -7.3142
    -7.3138  -7.3134  -7.3129  -7.3126  -7.3119  -7.3114  -7.3113  -7.3103
    -7.3098  -7.3095  -7.3093  -7.3086  -7.3083  -7.3075  -7.3074  -7.3067
    -7.3062  -7.3058  -7.3056  -7.3052  -7.3050  -7.3044  -7.3041  -7.3039
    -7.3030  -7.3026  -7.3020  -7.3014  -7.3013  -7.3004  -7.2999  -7.2996
    -7.2991  -7.2988  -7.2984  -7.2982  -7.2979  -7.2975  -7.2966  -7.2964
    -7.2964  -7.2958  -7.2957  -7.2953  -7.2949  -7.2948  -7.2944  -7.2939
    -7.2932  -7.2927  -7.2918  -7.2915  -7.2912  -7.2907  -7.2903  -7.2901
    -7.2898  -7.2897  -7.2892  -7.2889  -7.2885  -7.2882  -7.2881  -7.2876
    -7.2876  -7.2871  -7.2868  -7.2861  -7.2860  -7.2853  -7.2852  -7.2850
    -7.2846  -7.2841  -7.2838  -7.2832  -7.2825  -7.2825  -7.2822  -7.2814
    -7.2813  -7.2809  -7.2804  -7.2801  -7.2797  -7.2794  -7.2791  -7.2789
    -7.2788  -7.2783  -7.2778  -7.2777  -7.2772  -7.2763  -7.2760  -7.2758
    -7.2755  -7.2751  -7.2750  -7.2747  -7.2744  -7.2738  -7.2738  -7.2735
    -7.2732  -7.2726  -7.2721  -7.2717  -7.2711  -7.2708  -7.2707  -7.2704
    -7.2701  -7.2696  -7.2694  -7.2692  -7.2690  -7.2681  -7.2674  -7.2670
    -7.2667  -7.2666  -7.2664  -7.2657  -7.2653  -7.2648  -7.2644  -7.2642
    -7.2640  -7.2638  -7.2632  -7.2629  -7.2628  -7.2618  -7.2617  -7.2613
    -7.2610  -7.2608  -7.2606  -7.2604  -7.2597  -7.2592  -7.2591  -7.2586
    -7.2585  -7.2580  -7.2577  -7.2569  -7.2563  -7.2556  -7.2556  -7.2548
    -7.2545  -7.2539  -7.2536  -7.2528  -7.2526  -7.2523  -7.2520  -7.2518
    -7.2515  -7.2512  -7.2508  -7.2506  -7.2501  -7.2500  -7.2496  -7.2489
    -7.2486  -7.2484  -7.2481  -7.2475  -7.2472  -7.2472  -7.2458  -7.2456
    -7.2451  -7.2449  -7.2446  -7.2444  -7.2443  -7.2439  -7.2438  -7.2435
    -7.2432  -7.2431  -7.2423  -7.2419  -7.2418  -7.2416  -7.2413  -7.2410
    -7.2407  -7.2406  -7.2403  -7.2402  -7.2400  -7.2395  -7.2393  -7.2388
    -7.2381  -7.2376  -7.2375  -7.2368  -7.2367  -7.2358  -7.2356  -7.2353
    -7.2351  -7.2346  -7.2343  -7.2337  -7.2336  -7.2332  -7.2325  -7.2319
    -7.2318  -7.2314  -7.2312  -7.2312  -7.2307  -7.2305  -7.2301  -7.2298
    -7.2295  -7.2288  -7.2284  -7.2278  -7.2272  -7.2268  -7.2265  -7.2260
    -7.2257  -7.2245  -7.2235  -7.2232  -7.2230  -7.2224  -7.2222  -7.2217
    -7.2214  -7.2206  -7.2199  -7.2197  -7.2190  -7.2189  -7.2182  -7.2181
    -7.2173  -7.2166  -7.2164  -7.2164  -7.2154  -7.2151  -7.2148  -7.2141
    -7.2140  -7.2134  -7.2128  -7.2117  -7.2115  -7.2112  -7.2106  -7.2105
    -7.2101  -7.2098  -7.2096  -7.2094  -7.2092  -7.2087  -7.2087  -7.2080
    -7.2080  -7.2079  -7.2073  -7.2071  -7.2067  -7.2066  -7.2062  -7.2056
    -7.2052  -7.2049  -7.2046  -7.2042  -7.2038  -7.2031  -7.2026  -7.2022
    -7.2011  -7.2010  -7.2006  -7.2004  -7.1994  -7.1992  -7.1989  -7.1987
    -7.1978  -7.1976  -7.1971  -7.1964  -7.1959  -7.1952  -7.1948  -7.1942
    -7.1937  -7.1933  -7.1931  -7.1927  -7.1924  -7.1921  -7.1915  -7.1913
    -7.1909  -7.1905  -7.1896  -7.1894  -7.1887  -7.1886  -7.1878  -7.1876
    -7.1868  -7.1864  -7.1861  -7.1857  -7.1855  -7.1853  -7.1850  -7.1842
    -7.1837  -7.1834  -7.1822  -7.1820  -7.1818  -7.1811  -7.1802  -7.1800
    -7.1789  -7.1783  -7.1780  -7.1771  -7.1765  -7.1760  -7.1756  -7.1751
    -7.1748  -7.1742  -7.1738  -7.1725  -7.1723  -7.1720  -7.1714  -7.1711
    -7.1696  -7.1691  -7.1687  -7.1681  -7.1672  -7.1669  -7.1661  -7.1657
    -7.1654  -7.1650  -7.1649  -7.1644  -7.1629  -7.1617  -7.1607  -7.1599
    -7.1597  -7.1589  -7.1579  -7.1577  -7.1569  -7.1552  -7.1535  -7.1533
    -7.1530  -7.1524  -7.1517  -7.1504  -7.1488  -7.1485  -7.1482  -7.1467
    -7.1452  -7.1450  -7.1445  -7.1429  -7.1419  -7.1418  -7.1415  -7.1386
    -7.1379  -7.1377  -7.1369  -7.1358  -7.1356  -7.1343  -7.1313  -7.1301
    -7.1293  -7.1285  -7.1278  -7.1266  -7.1221  -7.1204  -7.0932  -7.0926
    -3.5275  -3.4353  -3.3685  -3.2806  -3.2450  -3.2281  -3.1996  -3.1399
    -3.1203  -3.0958  -3.0757  -3.0541  -3.0226  -2.9636  -2.9505  -2.9234
    -2.8748  -2.8072  -2.7852  -2.7759  -2.6923  -2.6636  -2.6103  -2.5969
    -2.5648  -2.5447  -2.5111  -2.4608  -2.4456  -2.4337  -2.4136  -2.3824
    -2.3668  -2.3587  -2.3049  -2.2804  -2.2738  -2.2602  -2.2363  -2.2109
    -2.1834  -2.1568  -2.1469  -2.1165  -2.0927  -2.0383  -2.0225  -2.0172
    -1.9991  -1.9724  -1.9649  -1.9502  -1.9347  -1.9128  -1.8913  -1.8881
    -1.8410  -1.7756  -1.7690  -1.7186  -1.6903  -1.6382  -1.6316  -1.5943
    -1.5776  -1.5575  -1.5408  -1.5216  -1.5109  -1.4949  -1.4700  -1.4574
    -1.4503  -1.4320  -1.4170  -1.4143  -1.4075  -1.3570  -1.3491  -1.3389
    -1.3060  -1.2704  -1.2443  -1.2351  -1.2124  -1.2092  -1.1584  -1.1383
    -1.1275  -1.1160  -1.1018  -1.0939  -1.0711  -1.0647  -1.0520  -1.0126
    -0.9214  -0.8948  -0.8439  -0.8358  -0.8156  -0.8139  -0.8013  -0.7940
    -0.7510  -0.7105  -0.7015  -0.6295  -0.2895  -0.2048  -0.1493  -0.0521
     0.0355   0.0636   0.0966   0.1340   0.1596   0.2325   0.2346   0.2563
     0.2777   0.3005   0.3123   0.3393   0.3589   0.3616   0.3765   0.4133
     0.4207   0.4719   0.4862   0.5127   0.5467   0.5642   0.5905   0.6064
     0.6165   0.6412   0.6600   0.6640   0.6934   0.7033   0.7110   0.7142
     0.7289   0.7374   0.7434   0.7558   0.7649   0.7687   0.7802   0.7925
     0.8064   0.8220   0.8264   0.8345   0.8450   0.8516   0.8685   0.8750
     0.8852   0.9030   0.9098   0.9380   0.9499   0.9574   0.9680   0.9905
     1.4618   1.5493   1.5833   1.6065   1.6279   1.6790   1.7113   1.7342
     1.7621   1.7842   1.7933   1.8222   1.8445   1.8484   1.8707   1.9054
     1.9169   1.9336   1.9619   1.9837   1.9911   2.0024   2.0300   2.0346
     2.0440   2.0604   2.0717   2.0914   2.9489   2.9717   2.9921   3.0147
     3.0208   3.0377   3.0669   3.0782   3.0958   3.1128   3.1196   3.1413
     3.1579   3.1611   3.1799   3.2064   3.3158   3.3456   3.3598   3.3631
     3.3766   3.4042   3.4102   3.4350   3.4614   3.4693   3.4771   3.5000
     3.5151   3.5235   3.5499   3.5670   3.5900   3.6077   3.6409   3.6564
     3.6736   3.6822   3.6910   3.7000   3.7289   3.7299   3.7480   3.7622
     3.7776   3.8011   3.8049   3.8224   3.8375   3.8391   3.8536   3.8684
     3.8763   3.8923   3.9075   3.9118   3.9294   3.9418   3.9574   3.9747
     3.9818   4.0056   4.0324   4.0402   4.1986   4.2401   4.2927   4.3031
     4.3300   4.3481   4.3939   4.4001   4.4220   4.4403   4.4481   4.4549
     4.4826   4.4901   4.5144   4.5206   4.5370   4.5425   4.5805   4.6003
     4.6057   4.6194   4.6415   4.6568   4.6662   4.6908   4.7004   4.7178
     4.7288   4.7423   4.7683   4.7864   4.8023   4.8299   4.8343   4.8487
     4.8655   4.8744   4.8912   4.9075   4.9101   4.9552   4.9564   4.9605
     4.9714   4.9950   5.0124   5.0252   5.0357   5.0448   5.0662   5.0741
     5.0851   5.0933   5.0938   5.1137   5.1313   5.1438   5.1576   5.1695
     5.1841   5.1931   5.2032   5.2199   5.2415   5.2520   5.2585   5.2866
     5.2960   5.3157   5.3344   5.3376   5.3486   5.3601   5.3703   5.3881
     5.3935   5.4099   5.4278   5.4414   5.4550   5.4737   5.4785   5.4895
     5.5039   5.5169   5.5372   5.5447   5.5652   5.5883   5.5944   5.6076
     5.6303   5.6522   5.6544   5.6672   5.6793   5.6997   5.7237   5.7310
     5.7410   5.7583   5.7700   5.7800   5.7946   5.8135   5.8201   5.8293
     5.8393   5.8747   5.8861   5.8916   5.9445   5.9734   5.9950   6.0207
     6.0506   6.0782   6.0945   6.1002   6.1140   6.1429   6.1620   6.1733
     6.2044   6.2139   6.2273   6.2684   6.2870   6.3090   6.3242   6.3411
     6.3443   6.3646   6.3728   6.3883   6.4060   6.4187   6.4349   6.4417
     6.4685   6.4780   6.4889   6.5020   6.5111   6.5297   6.5434   6.5600
     6.5692   6.5928   6.6137   6.6242   6.6680   6.6916   6.7006   6.7073
     6.7384   6.7558   6.7645   6.7797   6.7957   6.8030   6.8162   6.8648
     6.8925   6.9587   6.9714   7.0392   7.4311   7.4905   7.5200   7.5519
     9.1674   9.1788   9.2177   9.2285   9.2653   9.3241   9.3488   9.3976
     9.4257   9.4432   9.4859   9.4949   9.4988   9.5197   9.5286   9.5374
     9.5537   9.5654   9.5662   9.5890   9.5910   9.6031   9.6134   9.6414
     9.6647   9.6866   9.6952   9.7171   9.7618   9.7675   9.7758   9.7907
     9.8042   9.8405   9.8457   9.8638   9.8863   9.8877   9.8961   9.9058
     9.9142   9.9328   9.9502   9.9531   9.9695   9.9760   9.9987  10.0097
    10.0111  10.0224  10.0294  10.0512  10.0645  10.0760  10.1037  10.1084
    10.1190  10.1330  10.1439  10.1553  10.2017  10.2072  10.2197  10.2295
    10.2379  10.2560  10.2583  10.2771  10.2833  10.2886  10.2973  10.2991
    10.3210  10.3280  10.3341  10.3496  10.3589  10.3667  10.3707  10.3764
    10.3881  10.3939  10.4048  10.4217  10.4500  10.4695  10.4911  10.4949
    10.5105  10.5307  10.5504  10.5636  10.5744  10.5816  10.5844  10.5930
    10.6003  10.6182  10.6236  10.6319  10.6446  10.6728  10.6856  10.6908
    10.7134  10.7392  10.7517  10.7564  11.0991  11.1084  11.1253  11.1485
    11.2714  11.3010  11.3210  11.3482  11.3618  11.3682  11.3828  11.3943
    11.4044  11.4078  11.4332  11.4512  11.4615  11.4638  11.4751  11.4872
    11.5150  11.5211  11.5387  11.5512  11.5580  11.5693  11.5730  11.5826
    11.5897  11.6039  11.6073  11.6144  11.6259  11.6363  11.6370  11.6457
    11.6678  11.6816  11.6864  11.6918  11.7081  11.7262  11.7428  11.7457
    11.9017  11.9132  11.9420  11.9477  11.9584  11.9700  11.9794  11.9828
    11.9900  11.9955  12.0024  12.0049  12.0158  12.0287  12.0612  12.0944
    12.1647  12.1777  12.1856  12.1953  12.2079  12.2171  12.2274  12.2367
    12.2408  12.2477  12.2575  12.2638  12.2764  12.2872  12.2916  12.3007
    12.3036  12.3094  12.3206  12.3322  12.3393  12.3514  12.3549  12.3743
    12.3785  12.3836  12.3932  12.4040  12.4044  12.4143  12.4345  12.4363
    12.4586  12.4621  12.4755  12.4781  12.4878  12.4948  12.4989  12.5068
    12.5105  12.5154  12.5254  12.5350  12.5499  12.5590  12.5638  12.5740
    12.5784  12.5882  12.5901  12.6123  12.6315  12.6588  12.6798  12.6969
    12.7311  12.7401  12.7411  12.7888  12.8479  12.8681  12.8907  12.9031
    12.9075  12.9238  12.9384  12.9462  12.9993  13.0164  13.0292  13.0375
    13.0412  13.0451  13.0609  13.0785  13.0955  13.0991  13.1067  13.1104
    13.1196  13.1331  13.1365  13.1446  13.1526  13.1586  13.1650  13.1798
    13.1888  13.1986  13.2049  13.2207  13.2249  13.2345  13.2410  13.2523
    13.2586  13.2709  13.2821  13.2856  13.2976  13.3130  13.3279  13.3477
    13.3649  13.3700  13.3846  13.3882  13.4048  13.4133  13.4406  13.4641
    13.4739  13.4834  13.4883  13.5145  13.5899  13.6124  13.6326  13.6412
    13.6514  13.6645  13.6774  13.6799  13.6922  13.6968  13.7109  13.7142
    13.7268  13.7362  13.7497  13.7543  13.7691  13.7801  13.7883  13.7930
    13.7972  13.8024  13.8081  13.8124  13.8260  13.8439  13.8484  13.8567
    13.8619  13.8681  13.8802  13.8881  13.8952  13.9018  13.9129  13.9269
    13.9298  13.9356  13.9515  13.9558  13.9751  13.9786  13.9962  13.9976
    14.0084  14.0121  14.0184  14.0299  14.0339  14.0403  14.0508  14.0569
    14.0634  14.0747  14.0823  14.0873  14.0937  14.1015  14.1035  14.1180
    14.1257  14.1353  14.1490  14.1505  14.1594  14.1685  14.1862  14.1926
    14.3442  14.3717  14.3843  14.4044  14.4241  14.4302  14.4453  14.4657
    14.5777  14.6467  14.6504  14.6751  14.7205  14.7411  14.7649  14.7984
    14.8454  14.8759  14.8894  14.9368  14.9491  14.9570  14.9700  14.9728
    14.9932  15.0004  15.0133  15.0280  15.0297  15.0430  15.0495  15.0881
    15.1855  15.2241  15.2389  15.2620  15.2681  15.2916  15.2987  15.3155
    15.3270  15.3346  15.3426  15.3606  15.3885  15.3959  15.4297  15.4377
    15.4436  15.4515  15.4592  15.4631  15.4814  15.4859  15.5002  15.5047
    15.5058  15.5182  15.5411  15.5427  15.5707  15.5737  15.5896  15.6119
    15.6246  15.6465  15.6526  15.6605  15.6804  15.6873  15.6995  15.7174
    15.7221  15.7260  15.7466  15.7994  15.8295  15.8552  15.8669  15.8802
    15.8894  15.9133  15.9249  15.9390  15.9615  15.9845  16.0045  16.0121
    16.0379  16.0663  16.0791  16.0997  16.1541  16.1629  16.1673  16.1853
    16.1899  16.2038  16.2124  16.2267  16.2349  16.2453  16.2493  16.2574
    16.2607  16.2668  16.2763  16.2848  16.3037  16.3089  16.3142  16.3268
    16.3464  16.3644  16.3784  16.3934  16.4147  16.4505  16.4870  16.4992
    16.5245  16.5328  16.5392  16.5508  16.5546  16.5614  16.5713  16.5836
    16.5936  16.5986  16.6069  16.6254  16.6293  16.6392  16.6456  16.6515
    16.6565  16.6774  16.6843  16.7022  16.7060  16.7106  16.7165  16.7219
    16.7344  16.7393  16.7641  16.7740  16.7778  16.7827  16.7975  16.8034
    16.8133  16.8390  16.8450  16.8546  16.8645  16.8736  16.8819  16.8884
    16.8963  16.9045  16.9114  16.9239  16.9344  16.9439  16.9566  16.9673
    17.0151  17.0206  17.0330  17.0358  17.0448  17.0517  17.0596  17.0689
    17.0713  17.0795  17.0835  17.0879  17.0975  17.0997  17.1092  17.1143
    17.1196  17.1249  17.1338  17.1410  17.1456  17.1548  17.1615  17.1650
    17.1737  17.1830  17.1868  17.1959  17.2010  17.2114  17.2151  17.2238
    17.2387  17.2497  17.2524  17.2593  17.2772  17.2849  17.3105  17.3234
    17.3636  17.3859  17.4010  17.4392  17.4777  17.4910  17.5156  17.5326
    17.6253  17.6416  17.6526  17.6628  17.6697  17.6794  17.6881  17.6953
    17.6974  17.7108  17.7223  17.7288  17.7354  17.7404  17.7415  17.7443
    17.7633  17.7676  17.7765  17.7836  17.7874  17.8100  17.8210  17.8405
    17.8947  17.9155  17.9305  17.9395  17.9549  17.9730  17.9857  17.9929
    18.0195  18.0305  18.0429  18.0509  18.0707  18.0892  18.0914  18.1034
    18.1207  18.1277  18.1381  18.1526  18.1914  18.2097  18.2274  18.2463
    18.2608  18.2732  18.2891  18.3185  18.3384  18.3525  18.3881  18.4036
    18.4259  18.4340  18.4400  18.4472  18.4640  18.4650  18.4711  18.4903
    18.4963  18.5095  18.5134  18.5195  18.5220  18.5331  18.5337  18.5563
    18.5596  18.5703  18.5787  18.5870  18.6296  18.6362  18.6396  18.6592

     highest occupied, lowest unoccupied level (ev):     7.6452    8.3789

!    total energy              =  -36980.91055099 Ry
     estimated scf accuracy    <       0.00000461 Ry

     The total energy is the sum of the following terms:
     one-electron contribution =  -18751.73826332 Ry
     hartree contribution      =   11369.08521299 Ry
     xc contribution           =   -9493.34476518 Ry
     ewald contribution        =  -20105.63308577 Ry
     Hubbard energy            =       0.72035028 Ry

     convergence has been achieved in  12 iterations

     Writing all to output data dir ./tmp_In0.0Ga1.0As0.25Sb0.75_cube_3x3x3.3/In0.0Ga1.0As0.25Sb0.75_cube_3x3x3.3.save/ :
     XML data file, charge density, pseudopotentials, collected wavefunctions

     init_run     :    240.41s CPU    242.87s WALL (       1 calls)
     electrons    :   9131.48s CPU   9153.25s WALL (       1 calls)

     Called by init_run:
     wfcinit      :    229.82s CPU    231.98s WALL (       1 calls)
     potinit      :      2.06s CPU      2.10s WALL (       1 calls)
     hinit0       :      1.91s CPU      1.94s WALL (       1 calls)

     Called by electrons:
     c_bands      :   8848.82s CPU   8869.34s WALL (      13 calls)
     sum_band     :    277.47s CPU    277.95s WALL (      13 calls)
     v_of_rho     :      3.43s CPU      3.55s WALL (      13 calls)
     mix_rho      :      0.79s CPU      0.81s WALL (      13 calls)

     Called by c_bands:
     init_us_2    :     32.85s CPU     33.40s WALL (      28 calls)
     cegterg      :   8399.84s CPU   8418.88s WALL (      13 calls)

     Called by *egterg:
     cdiaghg      :    768.75s CPU    769.47s WALL (     105 calls)
     h_psi        :   5013.71s CPU   5024.26s WALL (     107 calls)
     g_psi        :      4.38s CPU      4.38s WALL (      93 calls)

     Called by h_psi:
     h_psi:calbec :    889.53s CPU    889.58s WALL (     107 calls)
     vloc_psi     :    678.11s CPU    679.71s WALL (     107 calls)
     add_vuspsi   :    867.52s CPU    870.28s WALL (     107 calls)
     vhpsi        :   2569.80s CPU   2569.96s WALL (     107 calls)

     General routines
     calbec       :   1129.03s CPU   1129.11s WALL (     228 calls)
     fft          :      3.13s CPU      3.24s WALL (     131 calls)
     ffts         :      0.18s CPU      0.18s WALL (      13 calls)
     fftw         :    669.81s CPU    671.41s WALL (  161830 calls)

     Parallel routines

     Hubbard U routines
     new_ns       :     63.95s CPU     63.97s WALL (      13 calls)
     vhpsi        :   2569.80s CPU   2569.96s WALL (     107 calls)

     PWSCF        :      2h36m CPU      2h38m WALL


   This run was terminated on:   1:10:13  13Jun2025            

=------------------------------------------------------------------------------=
   JOB DONE.
=------------------------------------------------------------------------------=
