
     Program PWSCF v.7.3.1 starts on 29Mar2025 at 14:36:27 

     This program is part of the open-source Quantum ESPRESSO suite
     for quantum simulation of materials; please cite
         "P. Giannozzi et al., J. Phys.:Condens. Matter 21 395502 (2009);
         "P. Giannozzi et al., J. Phys.:Condens. Matter 29 465901 (2017);
         "P. Giannozzi et al., J. Chem. Phys. 152 154105 (2020);
          URL http://www.quantum-espresso.org", 
     in publications or presentations arising from this work. More details at
     http://www.quantum-espresso.org/quote

     Parallel version (MPI), running on    32 processors

     MPI processes distributed on     1 nodes
     243572 MiB available memory on the printing compute node when the environment starts

     Reading input from GaAs.scf.in
Warning: card &CELL ignored
Warning: card / ignored

     Current dimensions of program PWSCF are:
     Max number of different atomic species (ntypx) = 50
     Max number of k-points (npk) =  40000
     Max angular momentum in pseudopotentials (lmaxx) =  4

     K-points division:     npool     =       2
     R & G space division:  proc/nbgrp/npool/nimage =      16
     Subspace diagonalization in iterative solution of the eigenvalue problem:
     a serial algorithm will be used


     Parallelization info
     --------------------
     sticks:   dense  smooth     PW     G-vecs:    dense   smooth      PW
     Min         119     119     34                 3457     3457     527
     Max         120     120     35                 3460     3460     529
     Sum        1915    1915    559                55345    55345    8441

     Using Slab Decomposition



     bravais-lattice index     =            2
     lattice parameter (alat)  =      10.7507  a.u.
     unit-cell volume          =     310.6366 (a.u.)^3
     number of atoms/cell      =            2
     number of atomic types    =            2
     number of electrons       =        28.00
     number of Kohn-Sham states=           20
     kinetic-energy cutoff     =     120.0000  Ry
     charge density cutoff     =     480.0000  Ry
     scf convergence threshold =      5.0E-07
     mixing beta               =       0.7000
     number of iterations used =            8  plain     mixing
     Exchange-correlation= PBE
                           (   1   4   3   4   0   0   0)
     Hubbard projectors: atomic
     Hubbard parameters of DFT+U (Dudarev formulation) in eV:
     U(As-4p) =  5.8400
     U(Ga-4p) = -3.7300

     Internal variables: lda_plus_u =T, lda_plus_u_kind = 0

     celldm(1)=  10.750720  celldm(2)=   0.000000  celldm(3)=   0.000000
     celldm(4)=   0.000000  celldm(5)=   0.000000  celldm(6)=   0.000000

     crystal axes: (cart. coord. in units of alat)
               a(1) = (  -0.500000   0.000000   0.500000 )  
               a(2) = (   0.000000   0.500000   0.500000 )  
               a(3) = (  -0.500000   0.500000   0.000000 )  

     reciprocal axes: (cart. coord. in units 2 pi/alat)
               b(1) = ( -1.000000 -1.000000  1.000000 )  
               b(2) = (  1.000000  1.000000  1.000000 )  
               b(3) = ( -1.000000  1.000000 -1.000000 )  


     PseudoPot. # 1 for As read from file:
     /work/i254/i254/gentles/data/pseudos/As.pbe.NC-SR.standard.v0.5.UPF
     MD5 check sum: bfe1a874457ce592347346129958e7cf
     Pseudo is Norm-conserving + core correction, Zval = 15.0
     Generated using ONCVPSP code by D. R. Hamann
     Using radial grid of 1358 points,  6 beta functions with: 
                l(1) =   0
                l(2) =   0
                l(3) =   1
                l(4) =   1
                l(5) =   2
                l(6) =   2

     PseudoPot. # 2 for Ga read from file:
     /work/i254/i254/gentles/data/pseudos/Ga.pbe.NC-SR.standard.v0.5.UPF
     MD5 check sum: 2bb81bf6f0a8d9832cf3329850435ecf
     Pseudo is Norm-conserving + core correction, Zval = 13.0
     Generated using ONCVPSP code by D. R. Hamann
     Using radial grid of 1902 points,  6 beta functions with: 
                l(1) =   0
                l(2) =   0
                l(3) =   1
                l(4) =   1
                l(5) =   2
                l(6) =   2

     atomic species   valence    mass     pseudopotential
     As               15.00    74.92160     As( 1.00)
     Ga               13.00    69.72300     Ga( 1.00)

     24 Sym. Ops. (no inversion) found



   Cartesian axes

     site n.     atom                  positions (alat units)
         1        Ga     tau(   1) = (   0.0000000   0.0000000   0.0000000  )
         2        As     tau(   2) = (  -0.2500000   0.2500000   0.2500000  )

     number of k points=   145

     Number of k-points >= 100: set verbosity='high' to print them.

     Dense  grid:    55345 G-vectors     FFT dimensions: (  54,  54,  54)

     Estimated max dynamical RAM per process >      19.36 MB

     Estimated total dynamical RAM >     606.03 MB

     Initial potential from superposition of free atoms

     starting charge      27.9971, renormalised to      28.0000

     STARTING HUBBARD OCCUPATIONS:

     =================== HUBBARD OCCUPATIONS ===================
     ------------------------ ATOM    1 ------------------------
     Tr[ns(  1)] =   1.00000
     eigenvalues:
       0.167  0.167  0.167
     eigenvectors (columns):
       1.000  0.000  0.000
       0.000  1.000  0.000
       0.000  0.000  1.000
     occupation matrix ns (before diag.):
       0.167  0.000  0.000
       0.000  0.167  0.000
       0.000  0.000  0.167
     ------------------------ ATOM    2 ------------------------
     Tr[ns(  2)] =   3.00000
     eigenvalues:
       0.500  0.500  0.500
     eigenvectors (columns):
       1.000  0.000  0.000
       0.000  1.000  0.000
       0.000  0.000  1.000
     occupation matrix ns (before diag.):
       0.500  0.000  0.000
       0.000  0.500  0.000
       0.000  0.000  0.500

     Number of occupied Hubbard levels =    4.0000

     Atomic wfc used for Hubbard projectors are NOT orthogonalized

     Starting wfcs are   18 randomized atomic wfcs +    2 random wfcs

     total cpu time spent up to now is        2.1 secs

     per-process dynamical memory:    22.1 Mb

     Self-consistent Calculation

     iteration #  1     ecut=   120.00 Ry     beta= 0.70
     Davidson diagonalization with overlap
     ethr =  1.00E-02,  avg # of iterations =  5.0

     =================== HUBBARD OCCUPATIONS ===================
     ------------------------ ATOM    1 ------------------------
     Tr[ns(  1)] =   4.50141
     eigenvalues:
       0.750  0.750  0.750
     eigenvectors (columns):
       0.489 -0.483  0.726
       0.759 -0.173 -0.627
       0.429  0.858  0.282
     occupation matrix ns (before diag.):
       0.750 -0.000  0.000
      -0.000  0.750 -0.000
       0.000 -0.000  0.750
     ------------------------ ATOM    2 ------------------------
     Tr[ns(  2)] =   5.26501
     eigenvalues:
       0.878  0.878  0.878
     eigenvectors (columns):
       0.743 -0.321  0.587
       0.651  0.144 -0.745
       0.155  0.936  0.316
     occupation matrix ns (before diag.):
       0.878 -0.000  0.000
      -0.000  0.878 -0.000
       0.000 -0.000  0.878

     Number of occupied Hubbard levels =    9.7664

     Threshold (ethr) on eigenvalues was too large:
     Diagonalizing with lowered threshold

     Davidson diagonalization with overlap
     ethr =  9.83E-05,  avg # of iterations =  4.8

     total cpu time spent up to now is        9.9 secs

     total energy              =    -365.13577150 Ry
     estimated scf accuracy    <       0.02797905 Ry

     iteration #  2     ecut=   120.00 Ry     beta= 0.70
     Davidson diagonalization with overlap
     ethr =  9.99E-05,  avg # of iterations =  2.0

     total cpu time spent up to now is       13.2 secs

     total energy              =    -365.18489048 Ry
     estimated scf accuracy    <       0.05795568 Ry

     iteration #  3     ecut=   120.00 Ry     beta= 0.70
     Davidson diagonalization with overlap
     ethr =  9.99E-05,  avg # of iterations =  1.0

     total cpu time spent up to now is       16.0 secs

     total energy              =    -365.17002835 Ry
     estimated scf accuracy    <       0.03440466 Ry

     iteration #  4     ecut=   120.00 Ry     beta= 0.70
     Davidson diagonalization with overlap
     ethr =  9.99E-05,  avg # of iterations =  2.0

     total cpu time spent up to now is       19.0 secs

     total energy              =    -365.17449110 Ry
     estimated scf accuracy    <       0.00039293 Ry

     iteration #  5     ecut=   120.00 Ry     beta= 0.70
     Davidson diagonalization with overlap
     ethr =  1.40E-06,  avg # of iterations =  6.7

     total cpu time spent up to now is       23.7 secs

     total energy              =    -365.17459702 Ry
     estimated scf accuracy    <       0.00017724 Ry

     iteration #  6     ecut=   120.00 Ry     beta= 0.70
     Davidson diagonalization with overlap
     ethr =  6.33E-07,  avg # of iterations =  2.0

     total cpu time spent up to now is       26.7 secs

     total energy              =    -365.17462112 Ry
     estimated scf accuracy    <       0.00000310 Ry

     iteration #  7     ecut=   120.00 Ry     beta= 0.70
     Davidson diagonalization with overlap
     ethr =  1.11E-08,  avg # of iterations =  2.9

     total cpu time spent up to now is       29.9 secs

     End of self-consistent calculation

     =================== HUBBARD OCCUPATIONS ===================
     ------------------------ ATOM    1 ------------------------
     Tr[ns(  1)] =   4.15037
     eigenvalues:
       0.692  0.692  0.692
     eigenvectors (columns):
       0.725 -0.376  0.577
       0.638  0.050 -0.768
       0.260  0.925  0.277
     occupation matrix ns (before diag.):
       0.692 -0.000  0.000
      -0.000  0.692 -0.000
       0.000 -0.000  0.692
     ------------------------ ATOM    2 ------------------------
     Tr[ns(  2)] =   5.42872
     eigenvalues:
       0.905  0.905  0.905
     eigenvectors (columns):
       0.570  0.525  0.632
       0.721  0.050 -0.691
       0.394 -0.850  0.350
     occupation matrix ns (before diag.):
       0.905 -0.000  0.000
      -0.000  0.905 -0.000
       0.000 -0.000  0.905

     Number of occupied Hubbard levels =    9.5791

     Number of k-points >= 100: set verbosity='high' to print the bands.

     highest occupied, lowest unoccupied level (ev):     7.4415    8.9597

!    total energy              =    -365.17462210 Ry
     estimated scf accuracy    <       0.00000033 Ry

     The total energy is the sum of the following terms:
     one-electron contribution =    -194.25346814 Ry
     hartree contribution      =     115.72764651 Ry
     xc contribution           =     -89.46353900 Ry
     ewald contribution        =    -197.12081475 Ry
     Hubbard energy            =      -0.06444673 Ry

     convergence has been achieved in   7 iterations

     Writing all to output data dir tmp/scf/GaAs.save/ :
     XML data file, charge density, pseudopotentials, collected wavefunctions

     init_run     :      1.41s CPU      1.53s WALL (       1 calls)
     electrons    :     27.11s CPU     27.96s WALL (       1 calls)

     Called by init_run:
     wfcinit      :      1.06s CPU      1.10s WALL (       1 calls)
     potinit      :      0.02s CPU      0.07s WALL (       1 calls)
     hinit0       :      0.28s CPU      0.29s WALL (       1 calls)

     Called by electrons:
     c_bands      :     23.40s CPU     24.09s WALL (       8 calls)
     sum_band     :      3.58s CPU      3.64s WALL (       8 calls)
     v_of_rho     :      0.09s CPU      0.10s WALL (       8 calls)
     mix_rho      :      0.03s CPU      0.03s WALL (       8 calls)

     Called by c_bands:
     init_us_2    :      0.49s CPU      0.52s WALL (    1314 calls)
     cegterg      :     21.73s CPU     22.14s WALL (     584 calls)

     Called by *egterg:
     cdiaghg      :      2.04s CPU      2.13s WALL (    2464 calls)
     h_psi        :     18.41s CPU     18.71s WALL (    2610 calls)
     g_psi        :      0.05s CPU      0.05s WALL (    1953 calls)

     Called by h_psi:
     h_psi:calbec :      0.65s CPU      0.66s WALL (    2610 calls)
     vloc_psi     :     16.82s CPU     17.10s WALL (    2610 calls)
     add_vuspsi   :      0.48s CPU      0.49s WALL (    2610 calls)
     vhpsi        :      0.33s CPU      0.34s WALL (    2610 calls)

     General routines
     calbec       :      0.95s CPU      0.97s WALL (    5877 calls)
     fft          :      0.26s CPU      0.27s WALL (      81 calls)
     ffts         :      0.00s CPU      0.00s WALL (       8 calls)
     fftw         :     18.00s CPU     18.30s WALL (   71056 calls)

     Parallel routines

     Hubbard U routines
     new_ns       :      0.12s CPU      0.12s WALL (       8 calls)
     vhpsi        :      0.33s CPU      0.34s WALL (    2610 calls)

     PWSCF        :     29.14s CPU     33.74s WALL


   This run was terminated on:  14:37: 1  29Mar2025            

=------------------------------------------------------------------------------=
   JOB DONE.
=------------------------------------------------------------------------------=
