
     Program PWSCF v.7.3.1 starts on 16Jun2025 at 19:28:36 

     This program is part of the open-source Quantum ESPRESSO suite
     for quantum simulation of materials; please cite
         "P. Giannozzi et al., J. Phys.:Condens. Matter 21 395502 (2009);
         "P. Giannozzi et al., J. Phys.:Condens. Matter 29 465901 (2017);
         "P. Giannozzi et al., J. Chem. Phys. 152 154105 (2020);
          URL http://www.quantum-espresso.org", 
     in publications or presentations arising from this work. More details at
     http://www.quantum-espresso.org/quote

     Parallel version (MPI), running on   640 processors

     MPI processes distributed on     5 nodes
     430622 MiB available memory on the printing compute node when the environment starts

     Reading input from In0.0Ga1.0As0.5Sb0.5_cube_3x3x3.9.scf.in
Warning: card &CELL ignored
Warning: card   CELL_DOFREE = 'ALL', ignored
Warning: card / ignored

     Current dimensions of program PWSCF are:
     Max number of different atomic species (ntypx) = 10
     Max number of k-points (npk) =  40000
     Max angular momentum in pseudopotentials (lmaxx) =  4

     K-points division:     npool     =       8
     R & G space division:  proc/nbgrp/npool/nimage =      80
     Subspace diagonalization in iterative solution of the eigenvalue problem:
     one sub-group per band group will be used
     custom distributed-memory algorithm (size of sub-group:  8*  8 procs)


     Parallelization info
     --------------------
     sticks:   dense  smooth     PW     G-vecs:    dense   smooth      PW
     Min         533     533    137                83028    83028   10849
     Max         535     535    138                83038    83038   10856
     Sum       42721   42721  11009              6642657  6642657  868215

     Using Slab Decomposition



     bravais-lattice index     =            1
     lattice parameter (alat)  =      33.4454  a.u.
     unit-cell volume          =   37411.9143 (a.u.)^3
     number of atoms/cell      =          216
     number of atomic types    =            4
     number of electrons       =      3024.00
     number of Kohn-Sham states=         2160
     kinetic-energy cutoff     =     120.0000  Ry
     charge density cutoff     =     480.0000  Ry
     scf convergence threshold =      1.0E-05
     mixing beta               =       0.6500
     number of iterations used =            8  plain     mixing
     Exchange-correlation= PBE
                           (   1   4   3   4   0   0   0)
     Hubbard projectors: atomic
     Hubbard parameters of DFT+U (Dudarev formulation) in eV:
     U(As-4p) =  5.8400
     U(Ga-4p) = -2.8000
     U(In-5p) = -1.0150
     U(Sb-5p) =  4.8900

     Internal variables: lda_plus_u =T, lda_plus_u_kind = 0

     celldm(1)=  33.445419  celldm(2)=   0.000000  celldm(3)=   0.000000
     celldm(4)=   0.000000  celldm(5)=   0.000000  celldm(6)=   0.000000

     crystal axes: (cart. coord. in units of alat)
               a(1) = (   1.000000   0.000000   0.000000 )  
               a(2) = (   0.000000   1.000000   0.000000 )  
               a(3) = (   0.000000   0.000000   1.000000 )  

     reciprocal axes: (cart. coord. in units 2 pi/alat)
               b(1) = (  1.000000  0.000000  0.000000 )  
               b(2) = (  0.000000  1.000000  0.000000 )  
               b(3) = (  0.000000  0.000000  1.000000 )  


     PseudoPot. # 1 for As read from file:
     /work/i254/i254/gentles/data/pseudos/As.pbe.NC-SR.standard.v0.5.UPF
     MD5 check sum: bfe1a874457ce592347346129958e7cf
     Pseudo is Norm-conserving + core correction, Zval = 15.0
     Generated using ONCVPSP code by D. R. Hamann
     Using radial grid of 1358 points,  6 beta functions with: 
                l(1) =   0
                l(2) =   0
                l(3) =   1
                l(4) =   1
                l(5) =   2
                l(6) =   2

     PseudoPot. # 2 for Ga read from file:
     /work/i254/i254/gentles/data/pseudos/Ga.pbe.NC-SR.standard.v0.5.UPF
     MD5 check sum: 2bb81bf6f0a8d9832cf3329850435ecf
     Pseudo is Norm-conserving + core correction, Zval = 13.0
     Generated using ONCVPSP code by D. R. Hamann
     Using radial grid of 1902 points,  6 beta functions with: 
                l(1) =   0
                l(2) =   0
                l(3) =   1
                l(4) =   1
                l(5) =   2
                l(6) =   2

     PseudoPot. # 3 for In read from file:
     /work/i254/i254/gentles/data/pseudos/In.pbe.NC-SR.standard.v0.5.UPF
     MD5 check sum: 835f4bf908c982ff75c88e16816a8d7f
     Pseudo is Norm-conserving + core correction, Zval = 13.0
     Generated using ONCVPSP code by D. R. Hamann
     Using radial grid of 1964 points,  6 beta functions with: 
                l(1) =   0
                l(2) =   0
                l(3) =   1
                l(4) =   1
                l(5) =   2
                l(6) =   2

     PseudoPot. # 4 for Sb read from file:
     /work/i254/i254/gentles/data/pseudos/Sb.pbe.NC-SR.standard.v0.5.UPF
     MD5 check sum: 127f69b6101c45666faeae1b5d611565
     Pseudo is Norm-conserving + core correction, Zval = 15.0
     Generated using ONCVPSP code by D. R. Hamann
     Using radial grid of 1434 points,  6 beta functions with: 
                l(1) =   0
                l(2) =   0
                l(3) =   1
                l(4) =   1
                l(5) =   2
                l(6) =   2

     atomic species   valence    mass     pseudopotential
     As               15.00    74.92160     As( 1.00)
     Ga               13.00    69.72300     Ga( 1.00)
     In               13.00   114.81800     In( 1.00)
     Sb               15.00   121.76000     Sb( 1.00)

     No symmetry found



   Cartesian axes

     site n.     atom                  positions (alat units)
         1        Ga     tau(   1) = (  -0.0079250  -0.0007930   0.0034960  )
         2        Ga     tau(   2) = (  -0.0116730   0.1691310   0.1661250  )
         3        Ga     tau(   3) = (   0.1717990   0.0046700   0.1724500  )
         4        Ga     tau(   4) = (   0.1670830   0.1664150   0.0005990  )
         5        Sb     tau(   5) = (   0.0801150   0.0841840   0.0868770  )
         6        Sb     tau(   6) = (   0.0813910   0.2495500   0.2507670  )
         7        As     tau(   7) = (   0.2535200   0.0848020   0.2520660  )
         8        Sb     tau(   8) = (   0.2541760   0.2511900   0.0829180  )
         9        Ga     tau(   9) = (  -0.0003110   0.0128990   0.3334740  )
        10        Ga     tau(  10) = (  -0.0041710   0.1640260   0.4923650  )
        11        Ga     tau(  11) = (   0.1666630   0.0094490   0.5003200  )
        12        Ga     tau(  12) = (   0.1720450   0.1663810   0.3360100  )
        13        As     tau(  13) = (   0.0851050   0.0881530   0.4157420  )
        14        Sb     tau(  14) = (   0.0844810   0.2493360   0.5769760  )
        15        As     tau(  15) = (   0.2526720   0.0835600   0.5829010  )
        16        As     tau(  16) = (   0.2511550   0.2500250   0.4172290  )
        17        Ga     tau(  17) = (  -0.0085670   0.0006790   0.6637650  )
        18        Ga     tau(  18) = (  -0.0015670   0.1615960   0.8394030  )
        19        Ga     tau(  19) = (   0.1714050  -0.0033720   0.8299660  )
        20        Ga     tau(  20) = (   0.1721850   0.1645130   0.6611490  )
        21        Sb     tau(  21) = (   0.0834690   0.0819230   0.7473240  )
        22        Sb     tau(  22) = (   0.0802800   0.2534950   0.9213070  )
        23        Sb     tau(  23) = (   0.2548360   0.0837660   0.9153690  )
        24        Sb     tau(  24) = (   0.2547760   0.2508500   0.7505010  )
        25        Ga     tau(  25) = (  -0.0047780   0.3378350   0.0091340  )
        26        Ga     tau(  26) = (   0.0001520   0.4981860   0.1685630  )
        27        Ga     tau(  27) = (   0.1628380   0.3370720   0.1627170  )
        28        Ga     tau(  28) = (   0.1732360   0.4941030   0.0053450  )
        29        As     tau(  29) = (   0.0820960   0.4192150   0.0846370  )
        30        As     tau(  30) = (   0.0791240   0.5812270   0.2496160  )
        31        Sb     tau(  31) = (   0.2502740   0.4192070   0.2499080  )
        32        As     tau(  32) = (   0.2507780   0.5792730   0.0851140  )
        33        Ga     tau(  33) = (  -0.0028070   0.3361030   0.3365960  )
        34        Ga     tau(  34) = (   0.0011810   0.5000900   0.4894550  )
        35        Ga     tau(  35) = (   0.1708990   0.3373390   0.4931880  )
        36        Ga     tau(  36) = (   0.1564500   0.4993860   0.3315720  )
        37        As     tau(  37) = (   0.0826940   0.4159750   0.4140700  )
        38        Sb     tau(  38) = (   0.0835580   0.5838720   0.5793170  )
        39        As     tau(  39) = (   0.2534110   0.4161910   0.5780270  )
        40        Sb     tau(  40) = (   0.2503000   0.5791910   0.4149300  )
        41        Ga     tau(  41) = (   0.0019160   0.3309250   0.6682420  )
        42        Ga     tau(  42) = (  -0.0047360   0.4931440   0.8412880  )
        43        Ga     tau(  43) = (   0.1730740   0.3357870   0.8409200  )
        44        Ga     tau(  44) = (   0.1721360   0.4964500   0.6586000  )
        45        Sb     tau(  45) = (   0.0869330   0.4167570   0.7518610  )
        46        Sb     tau(  46) = (   0.0868000   0.5807020   0.9197000  )
        47        As     tau(  47) = (   0.2550050   0.4141470   0.9214860  )
        48        Sb     tau(  48) = (   0.2523780   0.5816030   0.7500040  )
        49        Ga     tau(  49) = (  -0.0048560   0.6585640   0.0059900  )
        50        Ga     tau(  50) = (  -0.0069470   0.8344950   0.1667650  )
        51        Ga     tau(  51) = (   0.1663730   0.6544290   0.1682530  )
        52        Ga     tau(  52) = (   0.1688820   0.8292650  -0.0019990  )
        53        Sb     tau(  53) = (   0.0824580   0.7460910   0.0865530  )
        54        Sb     tau(  54) = (   0.0806180   0.9190210   0.2517110  )
        55        Sb     tau(  55) = (   0.2507120   0.7453390   0.2507650  )
        56        Sb     tau(  56) = (   0.2542720   0.9190150   0.0828450  )
        57        Ga     tau(  57) = (  -0.0000610   0.6667930   0.3286260  )
        58        Ga     tau(  58) = (   0.0048720   0.8292240   0.4920560  )
        59        Ga     tau(  59) = (   0.1638150   0.6712710   0.4926830  )
        60        Ga     tau(  60) = (   0.1617860   0.8283080   0.3361940  )
        61        As     tau(  61) = (   0.0807880   0.7463660   0.4114290  )
        62        Sb     tau(  62) = (   0.0845550   0.9170230   0.5829340  )
        63        Sb     tau(  63) = (   0.2494930   0.7492940   0.5839850  )
        64        Sb     tau(  64) = (   0.2497430   0.9208780   0.4137460  )
        65        Ga     tau(  65) = (   0.0067940   0.6705510   0.6722350  )
        66        Ga     tau(  66) = (  -0.0005660   0.8345950   0.8242710  )
        67        Ga     tau(  67) = (   0.1675360   0.6748120   0.8336710  )
        68        Ga     tau(  68) = (   0.1704330   0.8356580   0.6754110  )
        69        As     tau(  69) = (   0.0864310   0.7536650   0.7513710  )
        70        Sb     tau(  70) = (   0.0810990   0.9166810   0.9160710  )
        71        As     tau(  71) = (   0.2503500   0.7526510   0.9160140  )
        72        As     tau(  72) = (   0.2534500   0.9179010   0.7526920  )
        73        Ga     tau(  73) = (   0.3450000   0.0025100  -0.0006390  )
        74        Ga     tau(  74) = (   0.3352490   0.1598440   0.1670670  )
        75        Ga     tau(  75) = (   0.4977110  -0.0003260   0.1626970  )
        76        Ga     tau(  76) = (   0.5012880   0.1695600   0.0019020  )
        77        As     tau(  77) = (   0.4203460   0.0850170   0.0827250  )
        78        Sb     tau(  78) = (   0.4185560   0.2503790   0.2501590  )
        79        Sb     tau(  79) = (   0.5840030   0.0842280   0.2504360  )
        80        As     tau(  80) = (   0.5836510   0.2523790   0.0836210  )
        81        Ga     tau(  81) = (   0.3390360   0.0043670   0.3276770  )
        82        Ga     tau(  82) = (   0.3299910   0.1643160   0.4975660  )
        83        Ga     tau(  83) = (   0.4933200   0.0069410   0.4930300  )
        84        Ga     tau(  84) = (   0.4998370   0.1676610   0.3411690  )
        85        As     tau(  85) = (   0.4125690   0.0869380   0.4141370  )
        86        Sb     tau(  86) = (   0.4187600   0.2498980   0.5815530  )
        87        Sb     tau(  87) = (   0.5818330   0.0842840   0.5826750  )
        88        As     tau(  88) = (   0.5821950   0.2539490   0.4123490  )
        89        Ga     tau(  89) = (   0.3313430   0.0045700   0.6717090  )
        90        Ga     tau(  90) = (   0.3448870   0.1685860   0.8353880  )
        91        Ga     tau(  91) = (   0.4995880   0.0016290   0.8326770  )
        92        Ga     tau(  92) = (   0.4998310   0.1653090   0.6755790  )
        93        As     tau(  93) = (   0.4177620   0.0830400   0.7530670  )
        94        As     tau(  94) = (   0.4213190   0.2509240   0.9183280  )
        95        As     tau(  95) = (   0.5782960   0.0866630   0.9174370  )
        96        As     tau(  96) = (   0.5803050   0.2492300   0.7534940  )
        97        Ga     tau(  97) = (   0.3418580   0.3358060  -0.0024480  )
        98        Ga     tau(  98) = (   0.3398260   0.5020170   0.1631280  )
        99        Ga     tau(  99) = (   0.5028450   0.3370150   0.1626510  )
       100        Ga     tau( 100) = (   0.5004610   0.4996850   0.0107870  )
       101        As     tau( 101) = (   0.4185490   0.4166120   0.0843770  )
       102        As     tau( 102) = (   0.4225870   0.5787610   0.2468830  )
       103        As     tau( 103) = (   0.5818060   0.4153090   0.2475440  )
       104        As     tau( 104) = (   0.5835040   0.5787970   0.0896130  )
       105        Ga     tau( 105) = (   0.3338620   0.3332590   0.3400760  )
       106        Ga     tau( 106) = (   0.3391940   0.4956400   0.5006330  )
       107        Ga     tau( 107) = (   0.5037120   0.3361210   0.4937300  )
       108        Ga     tau( 108) = (   0.4991120   0.4966750   0.3310470  )
       109        As     tau( 109) = (   0.4189530   0.4162470   0.4157020  )
       110        As     tau( 110) = (   0.4205870   0.5781860   0.5805040  )
       111        As     tau( 111) = (   0.5786520   0.4145960   0.5816950  )
       112        As     tau( 112) = (   0.5782250   0.5796940   0.4148490  )
       113        Ga     tau( 113) = (   0.3335510   0.3401460   0.6633070  )
       114        Ga     tau( 114) = (   0.3343070   0.4899640   0.8346470  )
       115        Ga     tau( 115) = (   0.4962350   0.3295620   0.8304810  )
       116        Ga     tau( 116) = (   0.4952060   0.4932680   0.6631980  )
       117        As     tau( 117) = (   0.4158350   0.4137620   0.7488230  )
       118        Sb     tau( 118) = (   0.4132370   0.5801620   0.9216910  )
       119        Sb     tau( 119) = (   0.5816370   0.4131040   0.9205300  )
       120        Sb     tau( 120) = (   0.5803080   0.5824880   0.7465380  )
       121        Ga     tau( 121) = (   0.3226260   0.6669150   0.0012620  )
       122        Ga     tau( 122) = (   0.3376250   0.8373310   0.1731130  )
       123        Ga     tau( 123) = (   0.5052850   0.6617530   0.1700670  )
       124        Ga     tau( 124) = (   0.4991330   0.8411980   0.0008530  )
       125        Sb     tau( 125) = (   0.4169150   0.7485820   0.0848980  )
       126        As     tau( 126) = (   0.4195540   0.9203600   0.2487300  )
       127        As     tau( 127) = (   0.5817410   0.7501420   0.2479960  )
       128        As     tau( 128) = (   0.5803460   0.9191260   0.0843410  )
       129        Ga     tau( 129) = (   0.3405760   0.6568610   0.3277200  )
       130        Ga     tau( 130) = (   0.3336580   0.8347140   0.4995080  )
       131        Ga     tau( 131) = (   0.5038420   0.6615640   0.5019860  )
       132        Ga     tau( 132) = (   0.5007380   0.8335980   0.3247250  )
       133        Sb     tau( 133) = (   0.4193780   0.7472170   0.4147420  )
       134        Sb     tau( 134) = (   0.4177500   0.9201990   0.5851040  )
       135        As     tau( 135) = (   0.5821690   0.7508310   0.5820160  )
       136        Sb     tau( 136) = (   0.5843490   0.9170770   0.4150270  )
       137        Ga     tau( 137) = (   0.3403320   0.6595230   0.6601010  )
       138        Ga     tau( 138) = (   0.3325070   0.8392490   0.8382640  )
       139        Ga     tau( 139) = (   0.4967220   0.6662140   0.8355730  )
       140        Ga     tau( 140) = (   0.5077730   0.8350570   0.6670550  )
       141        Sb     tau( 141) = (   0.4156830   0.7528330   0.7489030  )
       142        As     tau( 142) = (   0.4200710   0.9198800   0.9157990  )
       143        Sb     tau( 143) = (   0.5830980   0.7509730   0.9199250  )
       144        As     tau( 144) = (   0.5816610   0.9191590   0.7508470  )
       145        Ga     tau( 145) = (   0.6560920   0.0047230   0.0015680  )
       146        Ga     tau( 146) = (   0.6661550   0.1768500   0.1675130  )
       147        Ga     tau( 147) = (   0.8348900  -0.0018650   0.1705880  )
       148        Ga     tau( 148) = (   0.8359360   0.1702660  -0.0022900  )
       149        Sb     tau( 149) = (   0.7494350   0.0862130   0.0847200  )
       150        As     tau( 150) = (   0.7499640   0.2535130   0.2483420  )
       151        As     tau( 151) = (   0.9134210   0.0862690   0.2491330  )
       152        As     tau( 152) = (   0.9117210   0.2536150   0.0848450  )
       153        Ga     tau( 153) = (   0.6747400  -0.0046820   0.3273870  )
       154        Ga     tau( 154) = (   0.6602000   0.1723320   0.4923650  )
       155        Ga     tau( 155) = (   0.8301640   0.0002420   0.5070140  )
       156        Ga     tau( 156) = (   0.8351790   0.1724100   0.3266460  )
       157        Sb     tau( 157) = (   0.7517730   0.0861200   0.4141650  )
       158        Sb     tau( 158) = (   0.7463630   0.2501670   0.5814940  )
       159        As     tau( 159) = (   0.9155220   0.0831450   0.5798140  )
       160        As     tau( 160) = (   0.9166180   0.2486050   0.4116040  )
       161        Ga     tau( 161) = (   0.6651660  -0.0062910   0.6678070  )
       162        Ga     tau( 162) = (   0.6620640   0.1711300   0.8394190  )
       163        Ga     tau( 163) = (   0.8407530   0.0026700   0.8358900  )
       164        Ga     tau( 164) = (   0.8341710   0.1624630   0.6612030  )
       165        Sb     tau( 165) = (   0.7483930   0.0834720   0.7523820  )
       166        As     tau( 166) = (   0.7486920   0.2483650   0.9210750  )
       167        As     tau( 167) = (   0.9169890   0.0837210   0.9208180  )
       168        Sb     tau( 168) = (   0.9139470   0.2473240   0.7535420  )
       169        Ga     tau( 169) = (   0.6711560   0.3282800   0.0055090  )
       170        Ga     tau( 170) = (   0.6646570   0.4930010   0.1648670  )
       171        Ga     tau( 171) = (   0.8318950   0.3345220   0.1688510  )
       172        Ga     tau( 172) = (   0.8351380   0.4936420   0.0091700  )
       173        As     tau( 173) = (   0.7498990   0.4127240   0.0866200  )
       174        Sb     tau( 174) = (   0.7482480   0.5821900   0.2498660  )
       175        As     tau( 175) = (   0.9182510   0.4150310   0.2492350  )
       176        As     tau( 176) = (   0.9162570   0.5775370   0.0882870  )
       177        Ga     tau( 177) = (   0.6624010   0.3304980   0.3253140  )
       178        Ga     tau( 178) = (   0.6568560   0.4968140   0.4974140  )
       179        Ga     tau( 179) = (   0.8353960   0.3269810   0.4931460  )
       180        Ga     tau( 180) = (   0.8404720   0.4989380   0.3302890  )
       181        Sb     tau( 181) = (   0.7481500   0.4148650   0.4121960  )
       182        Sb     tau( 182) = (   0.7471020   0.5823020   0.5775170  )
       183        Sb     tau( 183) = (   0.9184530   0.4149250   0.5781740  )
       184        As     tau( 184) = (   0.9214350   0.5819090   0.4087660  )
       185        Ga     tau( 185) = (   0.6557370   0.3317990   0.6669180  )
       186        Ga     tau( 186) = (   0.6645700   0.4995410   0.8349770  )
       187        Ga     tau( 187) = (   0.8307700   0.3314160   0.8448670  )
       188        Ga     tau( 188) = (   0.8320520   0.4982460   0.6645010  )
       189        Sb     tau( 189) = (   0.7479500   0.4127110   0.7516240  )
       190        Sb     tau( 190) = (   0.7495430   0.5802190   0.9237540  )
       191        As     tau( 191) = (   0.9137720   0.4138610   0.9248360  )
       192        Sb     tau( 192) = (   0.9167100   0.5829860   0.7531770  )
       193        Ga     tau( 193) = (   0.6614970   0.6612180   0.0092660  )
       194        Ga     tau( 194) = (   0.6616400   0.8370350   0.1688340  )
       195        Ga     tau( 195) = (   0.8406360   0.6648460   0.1685440  )
       196        Ga     tau( 196) = (   0.8338650   0.8396010   0.0057870  )
       197        Sb     tau( 197) = (   0.7499040   0.7501130   0.0879040  )
       198        As     tau( 198) = (   0.7508560   0.9144590   0.2451200  )
       199        As     tau( 199) = (   0.9178170   0.7491270   0.2485800  )
       200        As     tau( 200) = (   0.9140400   0.9183880   0.0872800  )
       201        Ga     tau( 201) = (   0.6561810   0.6657970   0.3338960  )
       202        Ga     tau( 202) = (   0.6670660   0.8335040   0.5074730  )
       203        Ga     tau( 203) = (   0.8400480   0.6596330   0.4914970  )
       204        Ga     tau( 204) = (   0.8320500   0.8320680   0.3228040  )
       205        Sb     tau( 205) = (   0.7490030   0.7492900   0.4149230  )
       206        As     tau( 206) = (   0.7481810   0.9177050   0.5859820  )
       207        Sb     tau( 207) = (   0.9182890   0.7502450   0.5824620  )
       208        Sb     tau( 208) = (   0.9149180   0.9191510   0.4136690  )
       209        Ga     tau( 209) = (   0.6624460   0.6715430   0.6601740  )
       210        Ga     tau( 210) = (   0.6623520   0.8394560   0.8309000  )
       211        Ga     tau( 211) = (   0.8292920   0.6685300   0.8365560  )
       212        Ga     tau( 212) = (   0.8335890   0.8427180   0.6657080  )
       213        Sb     tau( 213) = (   0.7479740   0.7540580   0.7474310  )
       214        Sb     tau( 214) = (   0.7479270   0.9222880   0.9186720  )
       215        Sb     tau( 215) = (   0.9174630   0.7524100   0.9187210  )
       216        As     tau( 216) = (   0.9156140   0.9198760   0.7488910  )

     number of k points=     8
                       cart. coord. in units 2pi/alat
        k(    1) = (   0.0000000   0.0000000   0.0000000), wk =   0.2500000
        k(    2) = (   0.0000000   0.0000000  -0.5000000), wk =   0.2500000
        k(    3) = (   0.0000000  -0.5000000  -0.5000000), wk =   0.2500000
        k(    4) = (  -0.5000000  -0.5000000  -0.5000000), wk =   0.2500000
        k(    5) = (  -0.5000000   0.0000000   0.0000000), wk =   0.2500000
        k(    6) = (   0.0000000  -0.5000000   0.0000000), wk =   0.2500000
        k(    7) = (  -0.5000000   0.0000000   0.5000000), wk =   0.2500000
        k(    8) = (  -0.5000000   0.5000000   0.0000000), wk =   0.2500000

     Dense  grid:  6642657 G-vectors     FFT dimensions: ( 240, 240, 240)

     Estimated max dynamical RAM per process >       2.57 GB

     Estimated total dynamical RAM >    1633.76 GB

     Initial potential from superposition of free atoms

     starting charge    3023.6679, renormalised to    3024.0000

     STARTING HUBBARD OCCUPATIONS:

     =================== HUBBARD OCCUPATIONS ===================
     ------------------------ ATOM    1 ------------------------
     Tr[ns(  1)] =   1.00000
     eigenvalues:
       0.167  0.167  0.167
     eigenvectors (columns):
       1.000  0.000  0.000
       0.000  1.000  0.000
       0.000  0.000  1.000
     occupation matrix ns (before diag.):
       0.167  0.000  0.000
       0.000  0.167  0.000
       0.000  0.000  0.167
     ------------------------ ATOM    2 ------------------------
     Tr[ns(  2)] =   1.00000
     eigenvalues:
       0.167  0.167  0.167
     eigenvectors (columns):
       1.000  0.000  0.000
       0.000  1.000  0.000
       0.000  0.000  1.000
     occupation matrix ns (before diag.):
       0.167  0.000  0.000
       0.000  0.167  0.000
       0.000  0.000  0.167
     ------------------------ ATOM    3 ------------------------
     Tr[ns(  3)] =   1.00000
     eigenvalues:
       0.167  0.167  0.167
     eigenvectors (columns):
       1.000  0.000  0.000
       0.000  1.000  0.000
       0.000  0.000  1.000
     occupation matrix ns (before diag.):
       0.167  0.000  0.000
       0.000  0.167  0.000
       0.000  0.000  0.167
     ------------------------ ATOM    4 ------------------------
     Tr[ns(  4)] =   1.00000
     eigenvalues:
       0.167  0.167  0.167
     eigenvectors (columns):
       1.000  0.000  0.000
       0.000  1.000  0.000
       0.000  0.000  1.000
     occupation matrix ns (before diag.):
       0.167  0.000  0.000
       0.000  0.167  0.000
       0.000  0.000  0.167
     ------------------------ ATOM    5 ------------------------
     Tr[ns(  5)] =   3.00000
     eigenvalues:
       0.500  0.500  0.500
     eigenvectors (columns):
       1.000  0.000  0.000
       0.000  1.000  0.000
       0.000  0.000  1.000
     occupation matrix ns (before diag.):
       0.500  0.000  0.000
       0.000  0.500  0.000
       0.000  0.000  0.500
     ------------------------ ATOM    6 ------------------------
     Tr[ns(  6)] =   3.00000
     eigenvalues:
       0.500  0.500  0.500
     eigenvectors (columns):
       1.000  0.000  0.000
       0.000  1.000  0.000
       0.000  0.000  1.000
     occupation matrix ns (before diag.):
       0.500  0.000  0.000
       0.000  0.500  0.000
       0.000  0.000  0.500
     ------------------------ ATOM    7 ------------------------
     Tr[ns(  7)] =   3.00000
     eigenvalues:
       0.500  0.500  0.500
     eigenvectors (columns):
       1.000  0.000  0.000
       0.000  1.000  0.000
       0.000  0.000  1.000
     occupation matrix ns (before diag.):
       0.500  0.000  0.000
       0.000  0.500  0.000
       0.000  0.000  0.500
     ------------------------ ATOM    8 ------------------------
     Tr[ns(  8)] =   3.00000
     eigenvalues:
       0.500  0.500  0.500
     eigenvectors (columns):
       1.000  0.000  0.000
       0.000  1.000  0.000
       0.000  0.000  1.000
     occupation matrix ns (before diag.):
       0.500  0.000  0.000
       0.000  0.500  0.000
       0.000  0.000  0.500
     ------------------------ ATOM    9 ------------------------
     Tr[ns(  9)] =   1.00000
     eigenvalues:
       0.167  0.167  0.167
     eigenvectors (columns):
       1.000  0.000  0.000
       0.000  1.000  0.000
       0.000  0.000  1.000
     occupation matrix ns (before diag.):
       0.167  0.000  0.000
       0.000  0.167  0.000
       0.000  0.000  0.167
     ------------------------ ATOM   10 ------------------------
     Tr[ns( 10)] =   1.00000
     eigenvalues:
       0.167  0.167  0.167
     eigenvectors (columns):
       1.000  0.000  0.000
       0.000  1.000  0.000
       0.000  0.000  1.000
     occupation matrix ns (before diag.):
       0.167  0.000  0.000
       0.000  0.167  0.000
       0.000  0.000  0.167
     ------------------------ ATOM   11 ------------------------
     Tr[ns( 11)] =   1.00000
     eigenvalues:
       0.167  0.167  0.167
     eigenvectors (columns):
       1.000  0.000  0.000
       0.000  1.000  0.000
       0.000  0.000  1.000
     occupation matrix ns (before diag.):
       0.167  0.000  0.000
       0.000  0.167  0.000
       0.000  0.000  0.167
     ------------------------ ATOM   12 ------------------------
     Tr[ns( 12)] =   1.00000
     eigenvalues:
       0.167  0.167  0.167
     eigenvectors (columns):
       1.000  0.000  0.000
       0.000  1.000  0.000
       0.000  0.000  1.000
     occupation matrix ns (before diag.):
       0.167  0.000  0.000
       0.000  0.167  0.000
       0.000  0.000  0.167
     ------------------------ ATOM   13 ------------------------
     Tr[ns( 13)] =   3.00000
     eigenvalues:
       0.500  0.500  0.500
     eigenvectors (columns):
       1.000  0.000  0.000
       0.000  1.000  0.000
       0.000  0.000  1.000
     occupation matrix ns (before diag.):
       0.500  0.000  0.000
       0.000  0.500  0.000
       0.000  0.000  0.500
     ------------------------ ATOM   14 ------------------------
     Tr[ns( 14)] =   3.00000
     eigenvalues:
       0.500  0.500  0.500
     eigenvectors (columns):
       1.000  0.000  0.000
       0.000  1.000  0.000
       0.000  0.000  1.000
     occupation matrix ns (before diag.):
       0.500  0.000  0.000
       0.000  0.500  0.000
       0.000  0.000  0.500
     ------------------------ ATOM   15 ------------------------
     Tr[ns( 15)] =   3.00000
     eigenvalues:
       0.500  0.500  0.500
     eigenvectors (columns):
       1.000  0.000  0.000
       0.000  1.000  0.000
       0.000  0.000  1.000
     occupation matrix ns (before diag.):
       0.500  0.000  0.000
       0.000  0.500  0.000
       0.000  0.000  0.500
     ------------------------ ATOM   16 ------------------------
     Tr[ns( 16)] =   3.00000
     eigenvalues:
       0.500  0.500  0.500
     eigenvectors (columns):
       1.000  0.000  0.000
       0.000  1.000  0.000
       0.000  0.000  1.000
     occupation matrix ns (before diag.):
       0.500  0.000  0.000
       0.000  0.500  0.000
       0.000  0.000  0.500
     ------------------------ ATOM   17 ------------------------
     Tr[ns( 17)] =   1.00000
     eigenvalues:
       0.167  0.167  0.167
     eigenvectors (columns):
       1.000  0.000  0.000
       0.000  1.000  0.000
       0.000  0.000  1.000
     occupation matrix ns (before diag.):
       0.167  0.000  0.000
       0.000  0.167  0.000
       0.000  0.000  0.167
     ------------------------ ATOM   18 ------------------------
     Tr[ns( 18)] =   1.00000
     eigenvalues:
       0.167  0.167  0.167
     eigenvectors (columns):
       1.000  0.000  0.000
       0.000  1.000  0.000
       0.000  0.000  1.000
     occupation matrix ns (before diag.):
       0.167  0.000  0.000
       0.000  0.167  0.000
       0.000  0.000  0.167
     ------------------------ ATOM   19 ------------------------
     Tr[ns( 19)] =   1.00000
     eigenvalues:
       0.167  0.167  0.167
     eigenvectors (columns):
       1.000  0.000  0.000
       0.000  1.000  0.000
       0.000  0.000  1.000
     occupation matrix ns (before diag.):
       0.167  0.000  0.000
       0.000  0.167  0.000
       0.000  0.000  0.167
     ------------------------ ATOM   20 ------------------------
     Tr[ns( 20)] =   1.00000
     eigenvalues:
       0.167  0.167  0.167
     eigenvectors (columns):
       1.000  0.000  0.000
       0.000  1.000  0.000
       0.000  0.000  1.000
     occupation matrix ns (before diag.):
       0.167  0.000  0.000
       0.000  0.167  0.000
       0.000  0.000  0.167
     ------------------------ ATOM   21 ------------------------
     Tr[ns( 21)] =   3.00000
     eigenvalues:
       0.500  0.500  0.500
     eigenvectors (columns):
       1.000  0.000  0.000
       0.000  1.000  0.000
       0.000  0.000  1.000
     occupation matrix ns (before diag.):
       0.500  0.000  0.000
       0.000  0.500  0.000
       0.000  0.000  0.500
     ------------------------ ATOM   22 ------------------------
     Tr[ns( 22)] =   3.00000
     eigenvalues:
       0.500  0.500  0.500
     eigenvectors (columns):
       1.000  0.000  0.000
       0.000  1.000  0.000
       0.000  0.000  1.000
     occupation matrix ns (before diag.):
       0.500  0.000  0.000
       0.000  0.500  0.000
       0.000  0.000  0.500
     ------------------------ ATOM   23 ------------------------
     Tr[ns( 23)] =   3.00000
     eigenvalues:
       0.500  0.500  0.500
     eigenvectors (columns):
       1.000  0.000  0.000
       0.000  1.000  0.000
       0.000  0.000  1.000
     occupation matrix ns (before diag.):
       0.500  0.000  0.000
       0.000  0.500  0.000
       0.000  0.000  0.500
     ------------------------ ATOM   24 ------------------------
     Tr[ns( 24)] =   3.00000
     eigenvalues:
       0.500  0.500  0.500
     eigenvectors (columns):
       1.000  0.000  0.000
       0.000  1.000  0.000
       0.000  0.000  1.000
     occupation matrix ns (before diag.):
       0.500  0.000  0.000
       0.000  0.500  0.000
       0.000  0.000  0.500
     ------------------------ ATOM   25 ------------------------
     Tr[ns( 25)] =   1.00000
     eigenvalues:
       0.167  0.167  0.167
     eigenvectors (columns):
       1.000  0.000  0.000
       0.000  1.000  0.000
       0.000  0.000  1.000
     occupation matrix ns (before diag.):
       0.167  0.000  0.000
       0.000  0.167  0.000
       0.000  0.000  0.167
     ------------------------ ATOM   26 ------------------------
     Tr[ns( 26)] =   1.00000
     eigenvalues:
       0.167  0.167  0.167
     eigenvectors (columns):
       1.000  0.000  0.000
       0.000  1.000  0.000
       0.000  0.000  1.000
     occupation matrix ns (before diag.):
       0.167  0.000  0.000
       0.000  0.167  0.000
       0.000  0.000  0.167
     ------------------------ ATOM   27 ------------------------
     Tr[ns( 27)] =   1.00000
     eigenvalues:
       0.167  0.167  0.167
     eigenvectors (columns):
       1.000  0.000  0.000
       0.000  1.000  0.000
       0.000  0.000  1.000
     occupation matrix ns (before diag.):
       0.167  0.000  0.000
       0.000  0.167  0.000
       0.000  0.000  0.167
     ------------------------ ATOM   28 ------------------------
     Tr[ns( 28)] =   1.00000
     eigenvalues:
       0.167  0.167  0.167
     eigenvectors (columns):
       1.000  0.000  0.000
       0.000  1.000  0.000
       0.000  0.000  1.000
     occupation matrix ns (before diag.):
       0.167  0.000  0.000
       0.000  0.167  0.000
       0.000  0.000  0.167
     ------------------------ ATOM   29 ------------------------
     Tr[ns( 29)] =   3.00000
     eigenvalues:
       0.500  0.500  0.500
     eigenvectors (columns):
       1.000  0.000  0.000
       0.000  1.000  0.000
       0.000  0.000  1.000
     occupation matrix ns (before diag.):
       0.500  0.000  0.000
       0.000  0.500  0.000
       0.000  0.000  0.500
     ------------------------ ATOM   30 ------------------------
     Tr[ns( 30)] =   3.00000
     eigenvalues:
       0.500  0.500  0.500
     eigenvectors (columns):
       1.000  0.000  0.000
       0.000  1.000  0.000
       0.000  0.000  1.000
     occupation matrix ns (before diag.):
       0.500  0.000  0.000
       0.000  0.500  0.000
       0.000  0.000  0.500
     ------------------------ ATOM   31 ------------------------
     Tr[ns( 31)] =   3.00000
     eigenvalues:
       0.500  0.500  0.500
     eigenvectors (columns):
       1.000  0.000  0.000
       0.000  1.000  0.000
       0.000  0.000  1.000
     occupation matrix ns (before diag.):
       0.500  0.000  0.000
       0.000  0.500  0.000
       0.000  0.000  0.500
     ------------------------ ATOM   32 ------------------------
     Tr[ns( 32)] =   3.00000
     eigenvalues:
       0.500  0.500  0.500
     eigenvectors (columns):
       1.000  0.000  0.000
       0.000  1.000  0.000
       0.000  0.000  1.000
     occupation matrix ns (before diag.):
       0.500  0.000  0.000
       0.000  0.500  0.000
       0.000  0.000  0.500
     ------------------------ ATOM   33 ------------------------
     Tr[ns( 33)] =   1.00000
     eigenvalues:
       0.167  0.167  0.167
     eigenvectors (columns):
       1.000  0.000  0.000
       0.000  1.000  0.000
       0.000  0.000  1.000
     occupation matrix ns (before diag.):
       0.167  0.000  0.000
       0.000  0.167  0.000
       0.000  0.000  0.167
     ------------------------ ATOM   34 ------------------------
     Tr[ns( 34)] =   1.00000
     eigenvalues:
       0.167  0.167  0.167
     eigenvectors (columns):
       1.000  0.000  0.000
       0.000  1.000  0.000
       0.000  0.000  1.000
     occupation matrix ns (before diag.):
       0.167  0.000  0.000
       0.000  0.167  0.000
       0.000  0.000  0.167
     ------------------------ ATOM   35 ------------------------
     Tr[ns( 35)] =   1.00000
     eigenvalues:
       0.167  0.167  0.167
     eigenvectors (columns):
       1.000  0.000  0.000
       0.000  1.000  0.000
       0.000  0.000  1.000
     occupation matrix ns (before diag.):
       0.167  0.000  0.000
       0.000  0.167  0.000
       0.000  0.000  0.167
     ------------------------ ATOM   36 ------------------------
     Tr[ns( 36)] =   1.00000
     eigenvalues:
       0.167  0.167  0.167
     eigenvectors (columns):
       1.000  0.000  0.000
       0.000  1.000  0.000
       0.000  0.000  1.000
     occupation matrix ns (before diag.):
       0.167  0.000  0.000
       0.000  0.167  0.000
       0.000  0.000  0.167
     ------------------------ ATOM   37 ------------------------
     Tr[ns( 37)] =   3.00000
     eigenvalues:
       0.500  0.500  0.500
     eigenvectors (columns):
       1.000  0.000  0.000
       0.000  1.000  0.000
       0.000  0.000  1.000
     occupation matrix ns (before diag.):
       0.500  0.000  0.000
       0.000  0.500  0.000
       0.000  0.000  0.500
     ------------------------ ATOM   38 ------------------------
     Tr[ns( 38)] =   3.00000
     eigenvalues:
       0.500  0.500  0.500
     eigenvectors (columns):
       1.000  0.000  0.000
       0.000  1.000  0.000
       0.000  0.000  1.000
     occupation matrix ns (before diag.):
       0.500  0.000  0.000
       0.000  0.500  0.000
       0.000  0.000  0.500
     ------------------------ ATOM   39 ------------------------
     Tr[ns( 39)] =   3.00000
     eigenvalues:
       0.500  0.500  0.500
     eigenvectors (columns):
       1.000  0.000  0.000
       0.000  1.000  0.000
       0.000  0.000  1.000
     occupation matrix ns (before diag.):
       0.500  0.000  0.000
       0.000  0.500  0.000
       0.000  0.000  0.500
     ------------------------ ATOM   40 ------------------------
     Tr[ns( 40)] =   3.00000
     eigenvalues:
       0.500  0.500  0.500
     eigenvectors (columns):
       1.000  0.000  0.000
       0.000  1.000  0.000
       0.000  0.000  1.000
     occupation matrix ns (before diag.):
       0.500  0.000  0.000
       0.000  0.500  0.000
       0.000  0.000  0.500
     ------------------------ ATOM   41 ------------------------
     Tr[ns( 41)] =   1.00000
     eigenvalues:
       0.167  0.167  0.167
     eigenvectors (columns):
       1.000  0.000  0.000
       0.000  1.000  0.000
       0.000  0.000  1.000
     occupation matrix ns (before diag.):
       0.167  0.000  0.000
       0.000  0.167  0.000
       0.000  0.000  0.167
     ------------------------ ATOM   42 ------------------------
     Tr[ns( 42)] =   1.00000
     eigenvalues:
       0.167  0.167  0.167
     eigenvectors (columns):
       1.000  0.000  0.000
       0.000  1.000  0.000
       0.000  0.000  1.000
     occupation matrix ns (before diag.):
       0.167  0.000  0.000
       0.000  0.167  0.000
       0.000  0.000  0.167
     ------------------------ ATOM   43 ------------------------
     Tr[ns( 43)] =   1.00000
     eigenvalues:
       0.167  0.167  0.167
     eigenvectors (columns):
       1.000  0.000  0.000
       0.000  1.000  0.000
       0.000  0.000  1.000
     occupation matrix ns (before diag.):
       0.167  0.000  0.000
       0.000  0.167  0.000
       0.000  0.000  0.167
     ------------------------ ATOM   44 ------------------------
     Tr[ns( 44)] =   1.00000
     eigenvalues:
       0.167  0.167  0.167
     eigenvectors (columns):
       1.000  0.000  0.000
       0.000  1.000  0.000
       0.000  0.000  1.000
     occupation matrix ns (before diag.):
       0.167  0.000  0.000
       0.000  0.167  0.000
       0.000  0.000  0.167
     ------------------------ ATOM   45 ------------------------
     Tr[ns( 45)] =   3.00000
     eigenvalues:
       0.500  0.500  0.500
     eigenvectors (columns):
       1.000  0.000  0.000
       0.000  1.000  0.000
       0.000  0.000  1.000
     occupation matrix ns (before diag.):
       0.500  0.000  0.000
       0.000  0.500  0.000
       0.000  0.000  0.500
     ------------------------ ATOM   46 ------------------------
     Tr[ns( 46)] =   3.00000
     eigenvalues:
       0.500  0.500  0.500
     eigenvectors (columns):
       1.000  0.000  0.000
       0.000  1.000  0.000
       0.000  0.000  1.000
     occupation matrix ns (before diag.):
       0.500  0.000  0.000
       0.000  0.500  0.000
       0.000  0.000  0.500
     ------------------------ ATOM   47 ------------------------
     Tr[ns( 47)] =   3.00000
     eigenvalues:
       0.500  0.500  0.500
     eigenvectors (columns):
       1.000  0.000  0.000
       0.000  1.000  0.000
       0.000  0.000  1.000
     occupation matrix ns (before diag.):
       0.500  0.000  0.000
       0.000  0.500  0.000
       0.000  0.000  0.500
     ------------------------ ATOM   48 ------------------------
     Tr[ns( 48)] =   3.00000
     eigenvalues:
       0.500  0.500  0.500
     eigenvectors (columns):
       1.000  0.000  0.000
       0.000  1.000  0.000
       0.000  0.000  1.000
     occupation matrix ns (before diag.):
       0.500  0.000  0.000
       0.000  0.500  0.000
       0.000  0.000  0.500
     ------------------------ ATOM   49 ------------------------
     Tr[ns( 49)] =   1.00000
     eigenvalues:
       0.167  0.167  0.167
     eigenvectors (columns):
       1.000  0.000  0.000
       0.000  1.000  0.000
       0.000  0.000  1.000
     occupation matrix ns (before diag.):
       0.167  0.000  0.000
       0.000  0.167  0.000
       0.000  0.000  0.167
     ------------------------ ATOM   50 ------------------------
     Tr[ns( 50)] =   1.00000
     eigenvalues:
       0.167  0.167  0.167
     eigenvectors (columns):
       1.000  0.000  0.000
       0.000  1.000  0.000
       0.000  0.000  1.000
     occupation matrix ns (before diag.):
       0.167  0.000  0.000
       0.000  0.167  0.000
       0.000  0.000  0.167
     ------------------------ ATOM   51 ------------------------
     Tr[ns( 51)] =   1.00000
     eigenvalues:
       0.167  0.167  0.167
     eigenvectors (columns):
       1.000  0.000  0.000
       0.000  1.000  0.000
       0.000  0.000  1.000
     occupation matrix ns (before diag.):
       0.167  0.000  0.000
       0.000  0.167  0.000
       0.000  0.000  0.167
     ------------------------ ATOM   52 ------------------------
     Tr[ns( 52)] =   1.00000
     eigenvalues:
       0.167  0.167  0.167
     eigenvectors (columns):
       1.000  0.000  0.000
       0.000  1.000  0.000
       0.000  0.000  1.000
     occupation matrix ns (before diag.):
       0.167  0.000  0.000
       0.000  0.167  0.000
       0.000  0.000  0.167
     ------------------------ ATOM   53 ------------------------
     Tr[ns( 53)] =   3.00000
     eigenvalues:
       0.500  0.500  0.500
     eigenvectors (columns):
       1.000  0.000  0.000
       0.000  1.000  0.000
       0.000  0.000  1.000
     occupation matrix ns (before diag.):
       0.500  0.000  0.000
       0.000  0.500  0.000
       0.000  0.000  0.500
     ------------------------ ATOM   54 ------------------------
     Tr[ns( 54)] =   3.00000
     eigenvalues:
       0.500  0.500  0.500
     eigenvectors (columns):
       1.000  0.000  0.000
       0.000  1.000  0.000
       0.000  0.000  1.000
     occupation matrix ns (before diag.):
       0.500  0.000  0.000
       0.000  0.500  0.000
       0.000  0.000  0.500
     ------------------------ ATOM   55 ------------------------
     Tr[ns( 55)] =   3.00000
     eigenvalues:
       0.500  0.500  0.500
     eigenvectors (columns):
       1.000  0.000  0.000
       0.000  1.000  0.000
       0.000  0.000  1.000
     occupation matrix ns (before diag.):
       0.500  0.000  0.000
       0.000  0.500  0.000
       0.000  0.000  0.500
     ------------------------ ATOM   56 ------------------------
     Tr[ns( 56)] =   3.00000
     eigenvalues:
       0.500  0.500  0.500
     eigenvectors (columns):
       1.000  0.000  0.000
       0.000  1.000  0.000
       0.000  0.000  1.000
     occupation matrix ns (before diag.):
       0.500  0.000  0.000
       0.000  0.500  0.000
       0.000  0.000  0.500
     ------------------------ ATOM   57 ------------------------
     Tr[ns( 57)] =   1.00000
     eigenvalues:
       0.167  0.167  0.167
     eigenvectors (columns):
       1.000  0.000  0.000
       0.000  1.000  0.000
       0.000  0.000  1.000
     occupation matrix ns (before diag.):
       0.167  0.000  0.000
       0.000  0.167  0.000
       0.000  0.000  0.167
     ------------------------ ATOM   58 ------------------------
     Tr[ns( 58)] =   1.00000
     eigenvalues:
       0.167  0.167  0.167
     eigenvectors (columns):
       1.000  0.000  0.000
       0.000  1.000  0.000
       0.000  0.000  1.000
     occupation matrix ns (before diag.):
       0.167  0.000  0.000
       0.000  0.167  0.000
       0.000  0.000  0.167
     ------------------------ ATOM   59 ------------------------
     Tr[ns( 59)] =   1.00000
     eigenvalues:
       0.167  0.167  0.167
     eigenvectors (columns):
       1.000  0.000  0.000
       0.000  1.000  0.000
       0.000  0.000  1.000
     occupation matrix ns (before diag.):
       0.167  0.000  0.000
       0.000  0.167  0.000
       0.000  0.000  0.167
     ------------------------ ATOM   60 ------------------------
     Tr[ns( 60)] =   1.00000
     eigenvalues:
       0.167  0.167  0.167
     eigenvectors (columns):
       1.000  0.000  0.000
       0.000  1.000  0.000
       0.000  0.000  1.000
     occupation matrix ns (before diag.):
       0.167  0.000  0.000
       0.000  0.167  0.000
       0.000  0.000  0.167
     ------------------------ ATOM   61 ------------------------
     Tr[ns( 61)] =   3.00000
     eigenvalues:
       0.500  0.500  0.500
     eigenvectors (columns):
       1.000  0.000  0.000
       0.000  1.000  0.000
       0.000  0.000  1.000
     occupation matrix ns (before diag.):
       0.500  0.000  0.000
       0.000  0.500  0.000
       0.000  0.000  0.500
     ------------------------ ATOM   62 ------------------------
     Tr[ns( 62)] =   3.00000
     eigenvalues:
       0.500  0.500  0.500
     eigenvectors (columns):
       1.000  0.000  0.000
       0.000  1.000  0.000
       0.000  0.000  1.000
     occupation matrix ns (before diag.):
       0.500  0.000  0.000
       0.000  0.500  0.000
       0.000  0.000  0.500
     ------------------------ ATOM   63 ------------------------
     Tr[ns( 63)] =   3.00000
     eigenvalues:
       0.500  0.500  0.500
     eigenvectors (columns):
       1.000  0.000  0.000
       0.000  1.000  0.000
       0.000  0.000  1.000
     occupation matrix ns (before diag.):
       0.500  0.000  0.000
       0.000  0.500  0.000
       0.000  0.000  0.500
     ------------------------ ATOM   64 ------------------------
     Tr[ns( 64)] =   3.00000
     eigenvalues:
       0.500  0.500  0.500
     eigenvectors (columns):
       1.000  0.000  0.000
       0.000  1.000  0.000
       0.000  0.000  1.000
     occupation matrix ns (before diag.):
       0.500  0.000  0.000
       0.000  0.500  0.000
       0.000  0.000  0.500
     ------------------------ ATOM   65 ------------------------
     Tr[ns( 65)] =   1.00000
     eigenvalues:
       0.167  0.167  0.167
     eigenvectors (columns):
       1.000  0.000  0.000
       0.000  1.000  0.000
       0.000  0.000  1.000
     occupation matrix ns (before diag.):
       0.167  0.000  0.000
       0.000  0.167  0.000
       0.000  0.000  0.167
     ------------------------ ATOM   66 ------------------------
     Tr[ns( 66)] =   1.00000
     eigenvalues:
       0.167  0.167  0.167
     eigenvectors (columns):
       1.000  0.000  0.000
       0.000  1.000  0.000
       0.000  0.000  1.000
     occupation matrix ns (before diag.):
       0.167  0.000  0.000
       0.000  0.167  0.000
       0.000  0.000  0.167
     ------------------------ ATOM   67 ------------------------
     Tr[ns( 67)] =   1.00000
     eigenvalues:
       0.167  0.167  0.167
     eigenvectors (columns):
       1.000  0.000  0.000
       0.000  1.000  0.000
       0.000  0.000  1.000
     occupation matrix ns (before diag.):
       0.167  0.000  0.000
       0.000  0.167  0.000
       0.000  0.000  0.167
     ------------------------ ATOM   68 ------------------------
     Tr[ns( 68)] =   1.00000
     eigenvalues:
       0.167  0.167  0.167
     eigenvectors (columns):
       1.000  0.000  0.000
       0.000  1.000  0.000
       0.000  0.000  1.000
     occupation matrix ns (before diag.):
       0.167  0.000  0.000
       0.000  0.167  0.000
       0.000  0.000  0.167
     ------------------------ ATOM   69 ------------------------
     Tr[ns( 69)] =   3.00000
     eigenvalues:
       0.500  0.500  0.500
     eigenvectors (columns):
       1.000  0.000  0.000
       0.000  1.000  0.000
       0.000  0.000  1.000
     occupation matrix ns (before diag.):
       0.500  0.000  0.000
       0.000  0.500  0.000
       0.000  0.000  0.500
     ------------------------ ATOM   70 ------------------------
     Tr[ns( 70)] =   3.00000
     eigenvalues:
       0.500  0.500  0.500
     eigenvectors (columns):
       1.000  0.000  0.000
       0.000  1.000  0.000
       0.000  0.000  1.000
     occupation matrix ns (before diag.):
       0.500  0.000  0.000
       0.000  0.500  0.000
       0.000  0.000  0.500
     ------------------------ ATOM   71 ------------------------
     Tr[ns( 71)] =   3.00000
     eigenvalues:
       0.500  0.500  0.500
     eigenvectors (columns):
       1.000  0.000  0.000
       0.000  1.000  0.000
       0.000  0.000  1.000
     occupation matrix ns (before diag.):
       0.500  0.000  0.000
       0.000  0.500  0.000
       0.000  0.000  0.500
     ------------------------ ATOM   72 ------------------------
     Tr[ns( 72)] =   3.00000
     eigenvalues:
       0.500  0.500  0.500
     eigenvectors (columns):
       1.000  0.000  0.000
       0.000  1.000  0.000
       0.000  0.000  1.000
     occupation matrix ns (before diag.):
       0.500  0.000  0.000
       0.000  0.500  0.000
       0.000  0.000  0.500
     ------------------------ ATOM   73 ------------------------
     Tr[ns( 73)] =   1.00000
     eigenvalues:
       0.167  0.167  0.167
     eigenvectors (columns):
       1.000  0.000  0.000
       0.000  1.000  0.000
       0.000  0.000  1.000
     occupation matrix ns (before diag.):
       0.167  0.000  0.000
       0.000  0.167  0.000
       0.000  0.000  0.167
     ------------------------ ATOM   74 ------------------------
     Tr[ns( 74)] =   1.00000
     eigenvalues:
       0.167  0.167  0.167
     eigenvectors (columns):
       1.000  0.000  0.000
       0.000  1.000  0.000
       0.000  0.000  1.000
     occupation matrix ns (before diag.):
       0.167  0.000  0.000
       0.000  0.167  0.000
       0.000  0.000  0.167
     ------------------------ ATOM   75 ------------------------
     Tr[ns( 75)] =   1.00000
     eigenvalues:
       0.167  0.167  0.167
     eigenvectors (columns):
       1.000  0.000  0.000
       0.000  1.000  0.000
       0.000  0.000  1.000
     occupation matrix ns (before diag.):
       0.167  0.000  0.000
       0.000  0.167  0.000
       0.000  0.000  0.167
     ------------------------ ATOM   76 ------------------------
     Tr[ns( 76)] =   1.00000
     eigenvalues:
       0.167  0.167  0.167
     eigenvectors (columns):
       1.000  0.000  0.000
       0.000  1.000  0.000
       0.000  0.000  1.000
     occupation matrix ns (before diag.):
       0.167  0.000  0.000
       0.000  0.167  0.000
       0.000  0.000  0.167
     ------------------------ ATOM   77 ------------------------
     Tr[ns( 77)] =   3.00000
     eigenvalues:
       0.500  0.500  0.500
     eigenvectors (columns):
       1.000  0.000  0.000
       0.000  1.000  0.000
       0.000  0.000  1.000
     occupation matrix ns (before diag.):
       0.500  0.000  0.000
       0.000  0.500  0.000
       0.000  0.000  0.500
     ------------------------ ATOM   78 ------------------------
     Tr[ns( 78)] =   3.00000
     eigenvalues:
       0.500  0.500  0.500
     eigenvectors (columns):
       1.000  0.000  0.000
       0.000  1.000  0.000
       0.000  0.000  1.000
     occupation matrix ns (before diag.):
       0.500  0.000  0.000
       0.000  0.500  0.000
       0.000  0.000  0.500
     ------------------------ ATOM   79 ------------------------
     Tr[ns( 79)] =   3.00000
     eigenvalues:
       0.500  0.500  0.500
     eigenvectors (columns):
       1.000  0.000  0.000
       0.000  1.000  0.000
       0.000  0.000  1.000
     occupation matrix ns (before diag.):
       0.500  0.000  0.000
       0.000  0.500  0.000
       0.000  0.000  0.500
     ------------------------ ATOM   80 ------------------------
     Tr[ns( 80)] =   3.00000
     eigenvalues:
       0.500  0.500  0.500
     eigenvectors (columns):
       1.000  0.000  0.000
       0.000  1.000  0.000
       0.000  0.000  1.000
     occupation matrix ns (before diag.):
       0.500  0.000  0.000
       0.000  0.500  0.000
       0.000  0.000  0.500
     ------------------------ ATOM   81 ------------------------
     Tr[ns( 81)] =   1.00000
     eigenvalues:
       0.167  0.167  0.167
     eigenvectors (columns):
       1.000  0.000  0.000
       0.000  1.000  0.000
       0.000  0.000  1.000
     occupation matrix ns (before diag.):
       0.167  0.000  0.000
       0.000  0.167  0.000
       0.000  0.000  0.167
     ------------------------ ATOM   82 ------------------------
     Tr[ns( 82)] =   1.00000
     eigenvalues:
       0.167  0.167  0.167
     eigenvectors (columns):
       1.000  0.000  0.000
       0.000  1.000  0.000
       0.000  0.000  1.000
     occupation matrix ns (before diag.):
       0.167  0.000  0.000
       0.000  0.167  0.000
       0.000  0.000  0.167
     ------------------------ ATOM   83 ------------------------
     Tr[ns( 83)] =   1.00000
     eigenvalues:
       0.167  0.167  0.167
     eigenvectors (columns):
       1.000  0.000  0.000
       0.000  1.000  0.000
       0.000  0.000  1.000
     occupation matrix ns (before diag.):
       0.167  0.000  0.000
       0.000  0.167  0.000
       0.000  0.000  0.167
     ------------------------ ATOM   84 ------------------------
     Tr[ns( 84)] =   1.00000
     eigenvalues:
       0.167  0.167  0.167
     eigenvectors (columns):
       1.000  0.000  0.000
       0.000  1.000  0.000
       0.000  0.000  1.000
     occupation matrix ns (before diag.):
       0.167  0.000  0.000
       0.000  0.167  0.000
       0.000  0.000  0.167
     ------------------------ ATOM   85 ------------------------
     Tr[ns( 85)] =   3.00000
     eigenvalues:
       0.500  0.500  0.500
     eigenvectors (columns):
       1.000  0.000  0.000
       0.000  1.000  0.000
       0.000  0.000  1.000
     occupation matrix ns (before diag.):
       0.500  0.000  0.000
       0.000  0.500  0.000
       0.000  0.000  0.500
     ------------------------ ATOM   86 ------------------------
     Tr[ns( 86)] =   3.00000
     eigenvalues:
       0.500  0.500  0.500
     eigenvectors (columns):
       1.000  0.000  0.000
       0.000  1.000  0.000
       0.000  0.000  1.000
     occupation matrix ns (before diag.):
       0.500  0.000  0.000
       0.000  0.500  0.000
       0.000  0.000  0.500
     ------------------------ ATOM   87 ------------------------
     Tr[ns( 87)] =   3.00000
     eigenvalues:
       0.500  0.500  0.500
     eigenvectors (columns):
       1.000  0.000  0.000
       0.000  1.000  0.000
       0.000  0.000  1.000
     occupation matrix ns (before diag.):
       0.500  0.000  0.000
       0.000  0.500  0.000
       0.000  0.000  0.500
     ------------------------ ATOM   88 ------------------------
     Tr[ns( 88)] =   3.00000
     eigenvalues:
       0.500  0.500  0.500
     eigenvectors (columns):
       1.000  0.000  0.000
       0.000  1.000  0.000
       0.000  0.000  1.000
     occupation matrix ns (before diag.):
       0.500  0.000  0.000
       0.000  0.500  0.000
       0.000  0.000  0.500
     ------------------------ ATOM   89 ------------------------
     Tr[ns( 89)] =   1.00000
     eigenvalues:
       0.167  0.167  0.167
     eigenvectors (columns):
       1.000  0.000  0.000
       0.000  1.000  0.000
       0.000  0.000  1.000
     occupation matrix ns (before diag.):
       0.167  0.000  0.000
       0.000  0.167  0.000
       0.000  0.000  0.167
     ------------------------ ATOM   90 ------------------------
     Tr[ns( 90)] =   1.00000
     eigenvalues:
       0.167  0.167  0.167
     eigenvectors (columns):
       1.000  0.000  0.000
       0.000  1.000  0.000
       0.000  0.000  1.000
     occupation matrix ns (before diag.):
       0.167  0.000  0.000
       0.000  0.167  0.000
       0.000  0.000  0.167
     ------------------------ ATOM   91 ------------------------
     Tr[ns( 91)] =   1.00000
     eigenvalues:
       0.167  0.167  0.167
     eigenvectors (columns):
       1.000  0.000  0.000
       0.000  1.000  0.000
       0.000  0.000  1.000
     occupation matrix ns (before diag.):
       0.167  0.000  0.000
       0.000  0.167  0.000
       0.000  0.000  0.167
     ------------------------ ATOM   92 ------------------------
     Tr[ns( 92)] =   1.00000
     eigenvalues:
       0.167  0.167  0.167
     eigenvectors (columns):
       1.000  0.000  0.000
       0.000  1.000  0.000
       0.000  0.000  1.000
     occupation matrix ns (before diag.):
       0.167  0.000  0.000
       0.000  0.167  0.000
       0.000  0.000  0.167
     ------------------------ ATOM   93 ------------------------
     Tr[ns( 93)] =   3.00000
     eigenvalues:
       0.500  0.500  0.500
     eigenvectors (columns):
       1.000  0.000  0.000
       0.000  1.000  0.000
       0.000  0.000  1.000
     occupation matrix ns (before diag.):
       0.500  0.000  0.000
       0.000  0.500  0.000
       0.000  0.000  0.500
     ------------------------ ATOM   94 ------------------------
     Tr[ns( 94)] =   3.00000
     eigenvalues:
       0.500  0.500  0.500
     eigenvectors (columns):
       1.000  0.000  0.000
       0.000  1.000  0.000
       0.000  0.000  1.000
     occupation matrix ns (before diag.):
       0.500  0.000  0.000
       0.000  0.500  0.000
       0.000  0.000  0.500
     ------------------------ ATOM   95 ------------------------
     Tr[ns( 95)] =   3.00000
     eigenvalues:
       0.500  0.500  0.500
     eigenvectors (columns):
       1.000  0.000  0.000
       0.000  1.000  0.000
       0.000  0.000  1.000
     occupation matrix ns (before diag.):
       0.500  0.000  0.000
       0.000  0.500  0.000
       0.000  0.000  0.500
     ------------------------ ATOM   96 ------------------------
     Tr[ns( 96)] =   3.00000
     eigenvalues:
       0.500  0.500  0.500
     eigenvectors (columns):
       1.000  0.000  0.000
       0.000  1.000  0.000
       0.000  0.000  1.000
     occupation matrix ns (before diag.):
       0.500  0.000  0.000
       0.000  0.500  0.000
       0.000  0.000  0.500
     ------------------------ ATOM   97 ------------------------
     Tr[ns( 97)] =   1.00000
     eigenvalues:
       0.167  0.167  0.167
     eigenvectors (columns):
       1.000  0.000  0.000
       0.000  1.000  0.000
       0.000  0.000  1.000
     occupation matrix ns (before diag.):
       0.167  0.000  0.000
       0.000  0.167  0.000
       0.000  0.000  0.167
     ------------------------ ATOM   98 ------------------------
     Tr[ns( 98)] =   1.00000
     eigenvalues:
       0.167  0.167  0.167
     eigenvectors (columns):
       1.000  0.000  0.000
       0.000  1.000  0.000
       0.000  0.000  1.000
     occupation matrix ns (before diag.):
       0.167  0.000  0.000
       0.000  0.167  0.000
       0.000  0.000  0.167
     ------------------------ ATOM   99 ------------------------
     Tr[ns( 99)] =   1.00000
     eigenvalues:
       0.167  0.167  0.167
     eigenvectors (columns):
       1.000  0.000  0.000
       0.000  1.000  0.000
       0.000  0.000  1.000
     occupation matrix ns (before diag.):
       0.167  0.000  0.000
       0.000  0.167  0.000
       0.000  0.000  0.167
     ------------------------ ATOM  100 ------------------------
     Tr[ns(100)] =   1.00000
     eigenvalues:
       0.167  0.167  0.167
     eigenvectors (columns):
       1.000  0.000  0.000
       0.000  1.000  0.000
       0.000  0.000  1.000
     occupation matrix ns (before diag.):
       0.167  0.000  0.000
       0.000  0.167  0.000
       0.000  0.000  0.167
     ------------------------ ATOM  101 ------------------------
     Tr[ns(101)] =   3.00000
     eigenvalues:
       0.500  0.500  0.500
     eigenvectors (columns):
       1.000  0.000  0.000
       0.000  1.000  0.000
       0.000  0.000  1.000
     occupation matrix ns (before diag.):
       0.500  0.000  0.000
       0.000  0.500  0.000
       0.000  0.000  0.500
     ------------------------ ATOM  102 ------------------------
     Tr[ns(102)] =   3.00000
     eigenvalues:
       0.500  0.500  0.500
     eigenvectors (columns):
       1.000  0.000  0.000
       0.000  1.000  0.000
       0.000  0.000  1.000
     occupation matrix ns (before diag.):
       0.500  0.000  0.000
       0.000  0.500  0.000
       0.000  0.000  0.500
     ------------------------ ATOM  103 ------------------------
     Tr[ns(103)] =   3.00000
     eigenvalues:
       0.500  0.500  0.500
     eigenvectors (columns):
       1.000  0.000  0.000
       0.000  1.000  0.000
       0.000  0.000  1.000
     occupation matrix ns (before diag.):
       0.500  0.000  0.000
       0.000  0.500  0.000
       0.000  0.000  0.500
     ------------------------ ATOM  104 ------------------------
     Tr[ns(104)] =   3.00000
     eigenvalues:
       0.500  0.500  0.500
     eigenvectors (columns):
       1.000  0.000  0.000
       0.000  1.000  0.000
       0.000  0.000  1.000
     occupation matrix ns (before diag.):
       0.500  0.000  0.000
       0.000  0.500  0.000
       0.000  0.000  0.500
     ------------------------ ATOM  105 ------------------------
     Tr[ns(105)] =   1.00000
     eigenvalues:
       0.167  0.167  0.167
     eigenvectors (columns):
       1.000  0.000  0.000
       0.000  1.000  0.000
       0.000  0.000  1.000
     occupation matrix ns (before diag.):
       0.167  0.000  0.000
       0.000  0.167  0.000
       0.000  0.000  0.167
     ------------------------ ATOM  106 ------------------------
     Tr[ns(106)] =   1.00000
     eigenvalues:
       0.167  0.167  0.167
     eigenvectors (columns):
       1.000  0.000  0.000
       0.000  1.000  0.000
       0.000  0.000  1.000
     occupation matrix ns (before diag.):
       0.167  0.000  0.000
       0.000  0.167  0.000
       0.000  0.000  0.167
     ------------------------ ATOM  107 ------------------------
     Tr[ns(107)] =   1.00000
     eigenvalues:
       0.167  0.167  0.167
     eigenvectors (columns):
       1.000  0.000  0.000
       0.000  1.000  0.000
       0.000  0.000  1.000
     occupation matrix ns (before diag.):
       0.167  0.000  0.000
       0.000  0.167  0.000
       0.000  0.000  0.167
     ------------------------ ATOM  108 ------------------------
     Tr[ns(108)] =   1.00000
     eigenvalues:
       0.167  0.167  0.167
     eigenvectors (columns):
       1.000  0.000  0.000
       0.000  1.000  0.000
       0.000  0.000  1.000
     occupation matrix ns (before diag.):
       0.167  0.000  0.000
       0.000  0.167  0.000
       0.000  0.000  0.167
     ------------------------ ATOM  109 ------------------------
     Tr[ns(109)] =   3.00000
     eigenvalues:
       0.500  0.500  0.500
     eigenvectors (columns):
       1.000  0.000  0.000
       0.000  1.000  0.000
       0.000  0.000  1.000
     occupation matrix ns (before diag.):
       0.500  0.000  0.000
       0.000  0.500  0.000
       0.000  0.000  0.500
     ------------------------ ATOM  110 ------------------------
     Tr[ns(110)] =   3.00000
     eigenvalues:
       0.500  0.500  0.500
     eigenvectors (columns):
       1.000  0.000  0.000
       0.000  1.000  0.000
       0.000  0.000  1.000
     occupation matrix ns (before diag.):
       0.500  0.000  0.000
       0.000  0.500  0.000
       0.000  0.000  0.500
     ------------------------ ATOM  111 ------------------------
     Tr[ns(111)] =   3.00000
     eigenvalues:
       0.500  0.500  0.500
     eigenvectors (columns):
       1.000  0.000  0.000
       0.000  1.000  0.000
       0.000  0.000  1.000
     occupation matrix ns (before diag.):
       0.500  0.000  0.000
       0.000  0.500  0.000
       0.000  0.000  0.500
     ------------------------ ATOM  112 ------------------------
     Tr[ns(112)] =   3.00000
     eigenvalues:
       0.500  0.500  0.500
     eigenvectors (columns):
       1.000  0.000  0.000
       0.000  1.000  0.000
       0.000  0.000  1.000
     occupation matrix ns (before diag.):
       0.500  0.000  0.000
       0.000  0.500  0.000
       0.000  0.000  0.500
     ------------------------ ATOM  113 ------------------------
     Tr[ns(113)] =   1.00000
     eigenvalues:
       0.167  0.167  0.167
     eigenvectors (columns):
       1.000  0.000  0.000
       0.000  1.000  0.000
       0.000  0.000  1.000
     occupation matrix ns (before diag.):
       0.167  0.000  0.000
       0.000  0.167  0.000
       0.000  0.000  0.167
     ------------------------ ATOM  114 ------------------------
     Tr[ns(114)] =   1.00000
     eigenvalues:
       0.167  0.167  0.167
     eigenvectors (columns):
       1.000  0.000  0.000
       0.000  1.000  0.000
       0.000  0.000  1.000
     occupation matrix ns (before diag.):
       0.167  0.000  0.000
       0.000  0.167  0.000
       0.000  0.000  0.167
     ------------------------ ATOM  115 ------------------------
     Tr[ns(115)] =   1.00000
     eigenvalues:
       0.167  0.167  0.167
     eigenvectors (columns):
       1.000  0.000  0.000
       0.000  1.000  0.000
       0.000  0.000  1.000
     occupation matrix ns (before diag.):
       0.167  0.000  0.000
       0.000  0.167  0.000
       0.000  0.000  0.167
     ------------------------ ATOM  116 ------------------------
     Tr[ns(116)] =   1.00000
     eigenvalues:
       0.167  0.167  0.167
     eigenvectors (columns):
       1.000  0.000  0.000
       0.000  1.000  0.000
       0.000  0.000  1.000
     occupation matrix ns (before diag.):
       0.167  0.000  0.000
       0.000  0.167  0.000
       0.000  0.000  0.167
     ------------------------ ATOM  117 ------------------------
     Tr[ns(117)] =   3.00000
     eigenvalues:
       0.500  0.500  0.500
     eigenvectors (columns):
       1.000  0.000  0.000
       0.000  1.000  0.000
       0.000  0.000  1.000
     occupation matrix ns (before diag.):
       0.500  0.000  0.000
       0.000  0.500  0.000
       0.000  0.000  0.500
     ------------------------ ATOM  118 ------------------------
     Tr[ns(118)] =   3.00000
     eigenvalues:
       0.500  0.500  0.500
     eigenvectors (columns):
       1.000  0.000  0.000
       0.000  1.000  0.000
       0.000  0.000  1.000
     occupation matrix ns (before diag.):
       0.500  0.000  0.000
       0.000  0.500  0.000
       0.000  0.000  0.500
     ------------------------ ATOM  119 ------------------------
     Tr[ns(119)] =   3.00000
     eigenvalues:
       0.500  0.500  0.500
     eigenvectors (columns):
       1.000  0.000  0.000
       0.000  1.000  0.000
       0.000  0.000  1.000
     occupation matrix ns (before diag.):
       0.500  0.000  0.000
       0.000  0.500  0.000
       0.000  0.000  0.500
     ------------------------ ATOM  120 ------------------------
     Tr[ns(120)] =   3.00000
     eigenvalues:
       0.500  0.500  0.500
     eigenvectors (columns):
       1.000  0.000  0.000
       0.000  1.000  0.000
       0.000  0.000  1.000
     occupation matrix ns (before diag.):
       0.500  0.000  0.000
       0.000  0.500  0.000
       0.000  0.000  0.500
     ------------------------ ATOM  121 ------------------------
     Tr[ns(121)] =   1.00000
     eigenvalues:
       0.167  0.167  0.167
     eigenvectors (columns):
       1.000  0.000  0.000
       0.000  1.000  0.000
       0.000  0.000  1.000
     occupation matrix ns (before diag.):
       0.167  0.000  0.000
       0.000  0.167  0.000
       0.000  0.000  0.167
     ------------------------ ATOM  122 ------------------------
     Tr[ns(122)] =   1.00000
     eigenvalues:
       0.167  0.167  0.167
     eigenvectors (columns):
       1.000  0.000  0.000
       0.000  1.000  0.000
       0.000  0.000  1.000
     occupation matrix ns (before diag.):
       0.167  0.000  0.000
       0.000  0.167  0.000
       0.000  0.000  0.167
     ------------------------ ATOM  123 ------------------------
     Tr[ns(123)] =   1.00000
     eigenvalues:
       0.167  0.167  0.167
     eigenvectors (columns):
       1.000  0.000  0.000
       0.000  1.000  0.000
       0.000  0.000  1.000
     occupation matrix ns (before diag.):
       0.167  0.000  0.000
       0.000  0.167  0.000
       0.000  0.000  0.167
     ------------------------ ATOM  124 ------------------------
     Tr[ns(124)] =   1.00000
     eigenvalues:
       0.167  0.167  0.167
     eigenvectors (columns):
       1.000  0.000  0.000
       0.000  1.000  0.000
       0.000  0.000  1.000
     occupation matrix ns (before diag.):
       0.167  0.000  0.000
       0.000  0.167  0.000
       0.000  0.000  0.167
     ------------------------ ATOM  125 ------------------------
     Tr[ns(125)] =   3.00000
     eigenvalues:
       0.500  0.500  0.500
     eigenvectors (columns):
       1.000  0.000  0.000
       0.000  1.000  0.000
       0.000  0.000  1.000
     occupation matrix ns (before diag.):
       0.500  0.000  0.000
       0.000  0.500  0.000
       0.000  0.000  0.500
     ------------------------ ATOM  126 ------------------------
     Tr[ns(126)] =   3.00000
     eigenvalues:
       0.500  0.500  0.500
     eigenvectors (columns):
       1.000  0.000  0.000
       0.000  1.000  0.000
       0.000  0.000  1.000
     occupation matrix ns (before diag.):
       0.500  0.000  0.000
       0.000  0.500  0.000
       0.000  0.000  0.500
     ------------------------ ATOM  127 ------------------------
     Tr[ns(127)] =   3.00000
     eigenvalues:
       0.500  0.500  0.500
     eigenvectors (columns):
       1.000  0.000  0.000
       0.000  1.000  0.000
       0.000  0.000  1.000
     occupation matrix ns (before diag.):
       0.500  0.000  0.000
       0.000  0.500  0.000
       0.000  0.000  0.500
     ------------------------ ATOM  128 ------------------------
     Tr[ns(128)] =   3.00000
     eigenvalues:
       0.500  0.500  0.500
     eigenvectors (columns):
       1.000  0.000  0.000
       0.000  1.000  0.000
       0.000  0.000  1.000
     occupation matrix ns (before diag.):
       0.500  0.000  0.000
       0.000  0.500  0.000
       0.000  0.000  0.500
     ------------------------ ATOM  129 ------------------------
     Tr[ns(129)] =   1.00000
     eigenvalues:
       0.167  0.167  0.167
     eigenvectors (columns):
       1.000  0.000  0.000
       0.000  1.000  0.000
       0.000  0.000  1.000
     occupation matrix ns (before diag.):
       0.167  0.000  0.000
       0.000  0.167  0.000
       0.000  0.000  0.167
     ------------------------ ATOM  130 ------------------------
     Tr[ns(130)] =   1.00000
     eigenvalues:
       0.167  0.167  0.167
     eigenvectors (columns):
       1.000  0.000  0.000
       0.000  1.000  0.000
       0.000  0.000  1.000
     occupation matrix ns (before diag.):
       0.167  0.000  0.000
       0.000  0.167  0.000
       0.000  0.000  0.167
     ------------------------ ATOM  131 ------------------------
     Tr[ns(131)] =   1.00000
     eigenvalues:
       0.167  0.167  0.167
     eigenvectors (columns):
       1.000  0.000  0.000
       0.000  1.000  0.000
       0.000  0.000  1.000
     occupation matrix ns (before diag.):
       0.167  0.000  0.000
       0.000  0.167  0.000
       0.000  0.000  0.167
     ------------------------ ATOM  132 ------------------------
     Tr[ns(132)] =   1.00000
     eigenvalues:
       0.167  0.167  0.167
     eigenvectors (columns):
       1.000  0.000  0.000
       0.000  1.000  0.000
       0.000  0.000  1.000
     occupation matrix ns (before diag.):
       0.167  0.000  0.000
       0.000  0.167  0.000
       0.000  0.000  0.167
     ------------------------ ATOM  133 ------------------------
     Tr[ns(133)] =   3.00000
     eigenvalues:
       0.500  0.500  0.500
     eigenvectors (columns):
       1.000  0.000  0.000
       0.000  1.000  0.000
       0.000  0.000  1.000
     occupation matrix ns (before diag.):
       0.500  0.000  0.000
       0.000  0.500  0.000
       0.000  0.000  0.500
     ------------------------ ATOM  134 ------------------------
     Tr[ns(134)] =   3.00000
     eigenvalues:
       0.500  0.500  0.500
     eigenvectors (columns):
       1.000  0.000  0.000
       0.000  1.000  0.000
       0.000  0.000  1.000
     occupation matrix ns (before diag.):
       0.500  0.000  0.000
       0.000  0.500  0.000
       0.000  0.000  0.500
     ------------------------ ATOM  135 ------------------------
     Tr[ns(135)] =   3.00000
     eigenvalues:
       0.500  0.500  0.500
     eigenvectors (columns):
       1.000  0.000  0.000
       0.000  1.000  0.000
       0.000  0.000  1.000
     occupation matrix ns (before diag.):
       0.500  0.000  0.000
       0.000  0.500  0.000
       0.000  0.000  0.500
     ------------------------ ATOM  136 ------------------------
     Tr[ns(136)] =   3.00000
     eigenvalues:
       0.500  0.500  0.500
     eigenvectors (columns):
       1.000  0.000  0.000
       0.000  1.000  0.000
       0.000  0.000  1.000
     occupation matrix ns (before diag.):
       0.500  0.000  0.000
       0.000  0.500  0.000
       0.000  0.000  0.500
     ------------------------ ATOM  137 ------------------------
     Tr[ns(137)] =   1.00000
     eigenvalues:
       0.167  0.167  0.167
     eigenvectors (columns):
       1.000  0.000  0.000
       0.000  1.000  0.000
       0.000  0.000  1.000
     occupation matrix ns (before diag.):
       0.167  0.000  0.000
       0.000  0.167  0.000
       0.000  0.000  0.167
     ------------------------ ATOM  138 ------------------------
     Tr[ns(138)] =   1.00000
     eigenvalues:
       0.167  0.167  0.167
     eigenvectors (columns):
       1.000  0.000  0.000
       0.000  1.000  0.000
       0.000  0.000  1.000
     occupation matrix ns (before diag.):
       0.167  0.000  0.000
       0.000  0.167  0.000
       0.000  0.000  0.167
     ------------------------ ATOM  139 ------------------------
     Tr[ns(139)] =   1.00000
     eigenvalues:
       0.167  0.167  0.167
     eigenvectors (columns):
       1.000  0.000  0.000
       0.000  1.000  0.000
       0.000  0.000  1.000
     occupation matrix ns (before diag.):
       0.167  0.000  0.000
       0.000  0.167  0.000
       0.000  0.000  0.167
     ------------------------ ATOM  140 ------------------------
     Tr[ns(140)] =   1.00000
     eigenvalues:
       0.167  0.167  0.167
     eigenvectors (columns):
       1.000  0.000  0.000
       0.000  1.000  0.000
       0.000  0.000  1.000
     occupation matrix ns (before diag.):
       0.167  0.000  0.000
       0.000  0.167  0.000
       0.000  0.000  0.167
     ------------------------ ATOM  141 ------------------------
     Tr[ns(141)] =   3.00000
     eigenvalues:
       0.500  0.500  0.500
     eigenvectors (columns):
       1.000  0.000  0.000
       0.000  1.000  0.000
       0.000  0.000  1.000
     occupation matrix ns (before diag.):
       0.500  0.000  0.000
       0.000  0.500  0.000
       0.000  0.000  0.500
     ------------------------ ATOM  142 ------------------------
     Tr[ns(142)] =   3.00000
     eigenvalues:
       0.500  0.500  0.500
     eigenvectors (columns):
       1.000  0.000  0.000
       0.000  1.000  0.000
       0.000  0.000  1.000
     occupation matrix ns (before diag.):
       0.500  0.000  0.000
       0.000  0.500  0.000
       0.000  0.000  0.500
     ------------------------ ATOM  143 ------------------------
     Tr[ns(143)] =   3.00000
     eigenvalues:
       0.500  0.500  0.500
     eigenvectors (columns):
       1.000  0.000  0.000
       0.000  1.000  0.000
       0.000  0.000  1.000
     occupation matrix ns (before diag.):
       0.500  0.000  0.000
       0.000  0.500  0.000
       0.000  0.000  0.500
     ------------------------ ATOM  144 ------------------------
     Tr[ns(144)] =   3.00000
     eigenvalues:
       0.500  0.500  0.500
     eigenvectors (columns):
       1.000  0.000  0.000
       0.000  1.000  0.000
       0.000  0.000  1.000
     occupation matrix ns (before diag.):
       0.500  0.000  0.000
       0.000  0.500  0.000
       0.000  0.000  0.500
     ------------------------ ATOM  145 ------------------------
     Tr[ns(145)] =   1.00000
     eigenvalues:
       0.167  0.167  0.167
     eigenvectors (columns):
       1.000  0.000  0.000
       0.000  1.000  0.000
       0.000  0.000  1.000
     occupation matrix ns (before diag.):
       0.167  0.000  0.000
       0.000  0.167  0.000
       0.000  0.000  0.167
     ------------------------ ATOM  146 ------------------------
     Tr[ns(146)] =   1.00000
     eigenvalues:
       0.167  0.167  0.167
     eigenvectors (columns):
       1.000  0.000  0.000
       0.000  1.000  0.000
       0.000  0.000  1.000
     occupation matrix ns (before diag.):
       0.167  0.000  0.000
       0.000  0.167  0.000
       0.000  0.000  0.167
     ------------------------ ATOM  147 ------------------------
     Tr[ns(147)] =   1.00000
     eigenvalues:
       0.167  0.167  0.167
     eigenvectors (columns):
       1.000  0.000  0.000
       0.000  1.000  0.000
       0.000  0.000  1.000
     occupation matrix ns (before diag.):
       0.167  0.000  0.000
       0.000  0.167  0.000
       0.000  0.000  0.167
     ------------------------ ATOM  148 ------------------------
     Tr[ns(148)] =   1.00000
     eigenvalues:
       0.167  0.167  0.167
     eigenvectors (columns):
       1.000  0.000  0.000
       0.000  1.000  0.000
       0.000  0.000  1.000
     occupation matrix ns (before diag.):
       0.167  0.000  0.000
       0.000  0.167  0.000
       0.000  0.000  0.167
     ------------------------ ATOM  149 ------------------------
     Tr[ns(149)] =   3.00000
     eigenvalues:
       0.500  0.500  0.500
     eigenvectors (columns):
       1.000  0.000  0.000
       0.000  1.000  0.000
       0.000  0.000  1.000
     occupation matrix ns (before diag.):
       0.500  0.000  0.000
       0.000  0.500  0.000
       0.000  0.000  0.500
     ------------------------ ATOM  150 ------------------------
     Tr[ns(150)] =   3.00000
     eigenvalues:
       0.500  0.500  0.500
     eigenvectors (columns):
       1.000  0.000  0.000
       0.000  1.000  0.000
       0.000  0.000  1.000
     occupation matrix ns (before diag.):
       0.500  0.000  0.000
       0.000  0.500  0.000
       0.000  0.000  0.500
     ------------------------ ATOM  151 ------------------------
     Tr[ns(151)] =   3.00000
     eigenvalues:
       0.500  0.500  0.500
     eigenvectors (columns):
       1.000  0.000  0.000
       0.000  1.000  0.000
       0.000  0.000  1.000
     occupation matrix ns (before diag.):
       0.500  0.000  0.000
       0.000  0.500  0.000
       0.000  0.000  0.500
     ------------------------ ATOM  152 ------------------------
[...]
   -19.5236 -19.5233 -19.5231 -19.5229 -19.5226 -19.5224 -19.5224 -19.5223
   -19.5221 -19.5220 -19.5218 -19.5217 -19.5214 -19.5212 -19.5209 -19.5204
   -19.5199 -19.5195 -19.5194 -19.5189 -19.5187 -19.5185 -19.5184 -19.5184
   -19.5183 -19.5179 -19.5178 -19.5172 -19.5167 -19.5166 -19.5164 -19.5162
   -19.5161 -19.5157 -19.5157 -19.5155 -19.5153 -19.5152 -19.5152 -19.5150
   -19.5150 -19.5145 -19.5144 -19.5142 -19.5142 -19.5141 -19.5138 -19.5138
   -19.5137 -19.5135 -19.5135 -19.5131 -19.5129 -19.5123 -19.5122 -19.5121
   -19.5117 -19.5114 -19.5111 -19.5110 -19.5106 -19.5105 -19.5102 -19.5100
   -19.5099 -19.5098 -19.5097 -19.5097 -19.5096 -19.5089 -19.5085 -19.5081
   -19.5081 -19.5079 -19.5077 -19.5074 -19.5071 -19.5064 -19.5064 -19.5060
   -19.5060 -19.5057 -19.5055 -19.5053 -19.5050 -19.5048 -19.5046 -19.5046
   -19.5044 -19.5041 -19.5039 -19.5039 -19.5037 -19.5035 -19.5031 -19.5021
   -19.5016 -19.5015 -19.5011 -19.5009 -19.5008 -19.5005 -19.5003 -19.5001
   -19.4998 -19.4997 -19.4996 -19.4995 -19.4993 -19.4991 -19.4984 -19.4983
   -19.4981 -19.4978 -19.4973 -19.4968 -19.4968 -19.4968 -19.4966 -19.4962
   -19.4959 -19.4959 -19.4958 -19.4957 -19.4955 -19.4954 -19.4953 -19.4951
   -19.4950 -19.4949 -19.4949 -19.4945 -19.4944 -19.4942 -19.4941 -19.4940
   -19.4937 -19.4933 -19.4932 -19.4930 -19.4927 -19.4921 -19.4919 -19.4918
   -19.4916 -19.4913 -19.4911 -19.4910 -19.4910 -19.4905 -19.4901 -19.4900
   -19.4899 -19.4895 -19.4894 -19.4890 -19.4889 -19.4888 -19.4887 -19.4872
   -19.4869 -19.4866 -19.4865 -19.4852 -19.4849 -19.4846 -19.4845 -19.4843
   -19.4840 -19.4829 -19.4820 -19.4820 -19.4812 -19.4809 -19.4807 -19.4806
   -19.4804 -19.4799 -19.4796 -19.4786 -19.4783 -19.4782 -19.4771 -19.4755
   -19.4754 -19.4746 -19.4744 -19.4742 -19.4740 -19.4732 -19.4730 -19.4727
   -19.4718 -19.4716 -19.4705 -19.4695 -19.4694 -19.4691 -19.4671 -19.4602
   -19.4598 -19.4589 -19.4551 -19.4508  -7.3703  -7.3640  -7.3596  -7.3566
    -7.3559  -7.3528  -7.3499  -7.3491  -7.3468  -7.3459  -7.3427  -7.3410
    -7.3400  -7.3389  -7.3385  -7.3375  -7.3358  -7.3328  -7.3312  -7.3306
    -7.3304  -7.3280  -7.3242  -7.3236  -7.3224  -7.3209  -7.3174  -7.3133
    -7.3119  -7.3114  -7.3107  -7.3096  -7.3093  -7.3086  -7.3082  -7.3067
    -7.3046  -7.3044  -7.3029  -7.3021  -7.3011  -7.3007  -7.3000  -7.3000
    -7.2977  -7.2972  -7.2950  -7.2948  -7.2945  -7.2937  -7.2918  -7.2916
    -7.2910  -7.2891  -7.2876  -7.2875  -7.2862  -7.2830  -7.2828  -7.2825
    -7.2816  -7.2812  -7.2802  -7.2793  -7.2782  -7.2772  -7.2768  -7.2761
    -7.2752  -7.2736  -7.2731  -7.2718  -7.2713  -7.2710  -7.2695  -7.2691
    -7.2683  -7.2676  -7.2674  -7.2666  -7.2657  -7.2644  -7.2637  -7.2627
    -7.2620  -7.2614  -7.2604  -7.2600  -7.2598  -7.2590  -7.2579  -7.2571
    -7.2563  -7.2560  -7.2554  -7.2547  -7.2543  -7.2536  -7.2531  -7.2530
    -7.2516  -7.2505  -7.2490  -7.2487  -7.2474  -7.2467  -7.2463  -7.2456
    -7.2449  -7.2441  -7.2435  -7.2434  -7.2428  -7.2424  -7.2421  -7.2409
    -7.2405  -7.2398  -7.2395  -7.2390  -7.2384  -7.2382  -7.2374  -7.2370
    -7.2369  -7.2356  -7.2354  -7.2350  -7.2348  -7.2343  -7.2341  -7.2339
    -7.2333  -7.2328  -7.2315  -7.2311  -7.2306  -7.2302  -7.2296  -7.2288
    -7.2285  -7.2281  -7.2276  -7.2272  -7.2270  -7.2257  -7.2257  -7.2254
    -7.2252  -7.2246  -7.2244  -7.2243  -7.2235  -7.2231  -7.2227  -7.2218
    -7.2217  -7.2214  -7.2209  -7.2202  -7.2200  -7.2196  -7.2188  -7.2183
    -7.2180  -7.2174  -7.2171  -7.2163  -7.2159  -7.2154  -7.2149  -7.2144
    -7.2135  -7.2126  -7.2119  -7.2117  -7.2113  -7.2112  -7.2108  -7.2104
    -7.2101  -7.2096  -7.2094  -7.2091  -7.2087  -7.2084  -7.2079  -7.2069
    -7.2064  -7.2062  -7.2057  -7.2050  -7.2046  -7.2039  -7.2036  -7.2028
    -7.2026  -7.2024  -7.2019  -7.2016  -7.2014  -7.2002  -7.2001  -7.1994
    -7.1990  -7.1975  -7.1970  -7.1968  -7.1967  -7.1965  -7.1957  -7.1953
    -7.1950  -7.1945  -7.1939  -7.1939  -7.1928  -7.1927  -7.1914  -7.1913
    -7.1910  -7.1906  -7.1903  -7.1900  -7.1896  -7.1891  -7.1889  -7.1886
    -7.1880  -7.1876  -7.1875  -7.1870  -7.1861  -7.1860  -7.1854  -7.1847
    -7.1843  -7.1836  -7.1835  -7.1832  -7.1826  -7.1823  -7.1815  -7.1812
    -7.1811  -7.1806  -7.1804  -7.1795  -7.1793  -7.1779  -7.1778  -7.1776
    -7.1770  -7.1769  -7.1765  -7.1761  -7.1757  -7.1752  -7.1750  -7.1749
    -7.1746  -7.1742  -7.1738  -7.1735  -7.1731  -7.1729  -7.1727  -7.1725
    -7.1724  -7.1719  -7.1716  -7.1714  -7.1708  -7.1703  -7.1703  -7.1700
    -7.1696  -7.1693  -7.1687  -7.1685  -7.1681  -7.1679  -7.1674  -7.1669
    -7.1668  -7.1660  -7.1660  -7.1655  -7.1652  -7.1651  -7.1646  -7.1636
    -7.1630  -7.1629  -7.1627  -7.1625  -7.1615  -7.1607  -7.1599  -7.1594
    -7.1583  -7.1579  -7.1578  -7.1577  -7.1572  -7.1571  -7.1566  -7.1563
    -7.1554  -7.1552  -7.1548  -7.1546  -7.1544  -7.1540  -7.1533  -7.1519
    -7.1510  -7.1506  -7.1503  -7.1500  -7.1497  -7.1494  -7.1493  -7.1489
    -7.1487  -7.1483  -7.1475  -7.1472  -7.1464  -7.1461  -7.1458  -7.1452
    -7.1450  -7.1443  -7.1438  -7.1437  -7.1427  -7.1423  -7.1416  -7.1411
    -7.1408  -7.1405  -7.1404  -7.1399  -7.1394  -7.1392  -7.1386  -7.1379
    -7.1374  -7.1370  -7.1364  -7.1359  -7.1351  -7.1347  -7.1344  -7.1336
    -7.1335  -7.1334  -7.1323  -7.1321  -7.1320  -7.1318  -7.1310  -7.1302
    -7.1296  -7.1294  -7.1290  -7.1285  -7.1282  -7.1278  -7.1275  -7.1271
    -7.1267  -7.1265  -7.1264  -7.1262  -7.1258  -7.1254  -7.1250  -7.1247
    -7.1245  -7.1240  -7.1236  -7.1225  -7.1223  -7.1222  -7.1214  -7.1212
    -7.1210  -7.1199  -7.1197  -7.1186  -7.1185  -7.1177  -7.1168  -7.1162
    -7.1160  -7.1142  -7.1138  -7.1134  -7.1130  -7.1123  -7.1120  -7.1112
    -7.1109  -7.1102  -7.1099  -7.1091  -7.1089  -7.1088  -7.1084  -7.1081
    -7.1078  -7.1068  -7.1065  -7.1052  -7.1051  -7.1049  -7.1037  -7.1035
    -7.1033  -7.1029  -7.1021  -7.1017  -7.1007  -7.1001  -7.0995  -7.0993
    -7.0992  -7.0984  -7.0978  -7.0974  -7.0964  -7.0958  -7.0937  -7.0933
    -7.0926  -7.0923  -7.0915  -7.0914  -7.0910  -7.0903  -7.0899  -7.0896
    -7.0892  -7.0881  -7.0880  -7.0873  -7.0869  -7.0868  -7.0854  -7.0843
    -7.0835  -7.0834  -7.0830  -7.0825  -7.0814  -7.0804  -7.0795  -7.0793
    -7.0790  -7.0787  -7.0780  -7.0776  -7.0774  -7.0764  -7.0757  -7.0750
    -7.0738  -7.0730  -7.0727  -7.0726  -7.0720  -7.0711  -7.0708  -7.0702
    -7.0697  -7.0690  -7.0687  -7.0681  -7.0677  -7.0675  -7.0671  -7.0669
    -7.0665  -7.0658  -7.0646  -7.0639  -7.0632  -7.0629  -7.0618  -7.0604
    -7.0589  -7.0585  -7.0582  -7.0579  -7.0571  -7.0564  -7.0555  -7.0541
    -7.0522  -7.0505  -7.0485  -7.0469  -7.0447  -7.0436  -7.0407  -7.0404
    -7.0393  -7.0364  -7.0361  -7.0349  -7.0343  -7.0335  -7.0325  -7.0319
    -7.0312  -7.0301  -7.0296  -7.0280  -7.0260  -7.0246  -7.0244  -7.0238
    -7.0235  -7.0228  -7.0221  -7.0209  -7.0196  -7.0181  -7.0171  -7.0168
    -7.0145  -7.0128  -6.9954  -6.9938  -6.9797  -6.9772  -6.9755  -6.9741
    -3.5649  -3.5162  -3.4684  -3.4199  -3.3442  -3.3038  -3.2707  -3.2564
    -3.2397  -3.1718  -3.1296  -3.0979  -3.0520  -3.0402  -3.0212  -2.9945
    -2.9134  -2.8813  -2.8623  -2.8545  -2.8107  -2.7883  -2.7532  -2.7211
    -2.7008  -2.6848  -2.6632  -2.6431  -2.6354  -2.6182  -2.5959  -2.5584
    -2.5466  -2.4761  -2.4475  -2.4286  -2.4169  -2.3773  -2.3580  -2.3314
    -2.3067  -2.3012  -2.2618  -2.2443  -2.2300  -2.1975  -2.1891  -2.1543
    -2.1298  -2.1093  -2.0894  -2.0869  -2.0394  -2.0219  -2.0061  -1.9822
    -1.9285  -1.8941  -1.8723  -1.8565  -1.8414  -1.8177  -1.7595  -1.7419
    -1.7341  -1.6841  -1.6274  -1.6238  -1.6165  -1.5798  -1.5690  -1.5638
    -1.5533  -1.5327  -1.5162  -1.4766  -1.4581  -1.4446  -1.4176  -1.3994
    -1.3856  -1.3734  -1.3234  -1.2907  -1.2814  -1.2613  -1.2298  -1.2199
    -1.2014  -1.1811  -1.1763  -1.1641  -1.1230  -1.0946  -1.0450  -1.0284
    -0.9868  -0.9689  -0.9171  -0.9074  -0.8818  -0.8500  -0.8350  -0.8074
    -0.7931  -0.7492  -0.7232  -0.7061  -0.3878  -0.2938  -0.2467  -0.2118
     0.0366   0.0670   0.0771   0.0921   0.1023   0.1144   0.1494   0.1622
     0.1727   0.1747   0.2052   0.2159   0.2385   0.2502   0.2712   0.2740
     0.2900   0.3011   0.3167   0.3246   0.3491   0.3629   0.4026   0.4116
     0.4237   0.4481   0.4690   0.4837   0.4843   0.5214   0.5436   0.5566
     0.5937   0.6153   0.6393   0.6523   0.6727   0.6895   0.7252   0.7560
     0.7650   0.7989   0.8171   0.8442   0.8582   0.8953   0.9088   0.9220
     0.9407   0.9523   0.9666   0.9843   1.0014   1.0230   1.0575   1.0688
     1.3957   1.4333   1.4638   1.5075   1.5445   1.5635   1.6234   1.6462
     1.6835   1.7144   1.7160   1.7469   1.7890   1.7995   1.8279   1.8633
     1.8833   1.9023   1.9277   1.9461   1.9609   1.9905   2.0161   2.0318
     2.0431   2.0694   2.1071   2.1461   2.8704   2.9100   2.9210   2.9418
     2.9680   2.9810   2.9933   3.0186   3.0353   3.0480   3.0854   3.1104
     3.1334   3.1614   3.1918   3.2349   3.2786   3.3083   3.3373   3.3517
     3.3784   3.3822   3.4062   3.4088   3.4212   3.4359   3.4523   3.4677
     3.4926   3.5107   3.5149   3.5321   3.5427   3.5883   3.5914   3.6244
     3.6293   3.6375   3.6499   3.6742   3.6863   3.6922   3.7084   3.7122
     3.7306   3.7548   3.7696   3.7802   3.7852   3.8120   3.8168   3.8411
     3.8490   3.8540   3.8802   3.8881   3.8945   3.9273   3.9549   3.9741
     3.9934   4.0016   4.0214   4.0475   4.1679   4.2235   4.2596   4.2881
     4.3219   4.3396   4.3499   4.3800   4.4061   4.4177   4.4254   4.4432
     4.4517   4.4722   4.4819   4.5057   4.5210   4.5291   4.5337   4.5567
     4.5776   4.5865   4.5963   4.6026   4.6265   4.6402   4.6564   4.6893
     4.6991   4.7027   4.7301   4.7373   4.7459   4.7656   4.7838   4.7969
     4.8076   4.8238   4.8299   4.8415   4.8538   4.8624   4.8777   4.9097
     4.9245   4.9457   4.9642   4.9777   5.0074   5.0139   5.0332   5.0470
     5.0559   5.0590   5.0913   5.0980   5.1155   5.1322   5.1494   5.1559
     5.1629   5.1835   5.1926   5.2108   5.2219   5.2467   5.2587   5.2653
     5.2774   5.2884   5.2928   5.3144   5.3233   5.3383   5.3637   5.3801
     5.3924   5.3997   5.4075   5.4205   5.4274   5.4564   5.4659   5.4797
     5.4961   5.5022   5.5100   5.5248   5.5449   5.5708   5.5905   5.5955
     5.6181   5.6360   5.6426   5.6511   5.6711   5.7000   5.7143   5.7182
     5.7457   5.7614   5.7758   5.7890   5.7969   5.8063   5.8501   5.8545
     5.8742   5.8946   5.9208   5.9326   5.9621   5.9781   6.0034   6.0117
     6.0376   6.0838   6.1081   6.1258   6.1402   6.1650   6.1889   6.1955
     6.2062   6.2248   6.2349   6.2611   6.2768   6.2982   6.3070   6.3242
     6.3449   6.3593   6.3691   6.3837   6.4089   6.4352   6.4552   6.4765
     6.4891   6.4926   6.5113   6.5589   6.5752   6.5911   6.6115   6.6158
     6.6501   6.6716   6.6800   6.6922   6.7111   6.7166   6.7418   6.7827
     6.7894   6.8073   6.8137   6.8365   6.8572   6.8822   6.9070   6.9243
     6.9390   7.0325   7.0750   7.1041   7.4462   7.5216   7.5600   7.6172
     9.2765   9.3555   9.3787   9.4174   9.4901   9.4932   9.5192   9.5601
     9.5909   9.6260   9.6305   9.6857   9.7032   9.7081   9.7182   9.7493
     9.7590   9.7737   9.7751   9.7903   9.8055   9.8184   9.8281   9.8357
     9.8675   9.8816   9.8935   9.9046   9.9248   9.9382   9.9564   9.9754
     9.9856  10.0152  10.0536  10.0752  10.0765  10.1020  10.1105  10.1174
    10.1360  10.1412  10.1565  10.1610  10.1807  10.1906  10.1979  10.2280
    10.2399  10.2523  10.2621  10.2728  10.2821  10.3000  10.3133  10.3177
    10.3389  10.3414  10.3512  10.3753  10.3900  10.4138  10.4251  10.4338
    10.4444  10.4570  10.4746  10.4875  10.4922  10.5044  10.5159  10.5191
    10.5250  10.5392  10.5571  10.5649  10.5739  10.5772  10.5899  10.5976
    10.6109  10.6242  10.6422  10.6523  10.6635  10.6992  10.7030  10.7123
    10.7422  10.7582  10.7633  10.7696  10.7859  10.8058  10.8119  10.8199
    10.8262  10.8332  10.8466  10.8505  10.8705  10.8780  10.8910  10.8965
    10.9144  10.9410  10.9832  10.9862  11.2773  11.3109  11.3228  11.3478
    11.4402  11.4770  11.4885  11.5254  11.5326  11.5570  11.5671  11.5903
    11.6082  11.6174  11.6367  11.6562  11.6845  11.6917  11.7153  11.7336
    11.7414  11.7469  11.7659  11.7721  11.7920  11.8089  11.8193  11.8404
    11.8437  11.8513  11.8746  11.8829  11.8910  11.8949  11.8982  11.9017
    11.9132  11.9406  11.9477  11.9531  11.9703  11.9947  12.0196  12.0277
    12.1567  12.1684  12.1789  12.1890  12.2099  12.2112  12.2251  12.2337
    12.2384  12.2533  12.2615  12.2725  12.2779  12.2813  12.3078  12.3117
    12.3891  12.4064  12.4140  12.4348  12.4403  12.4519  12.4627  12.4748
    12.4835  12.4888  12.4975  12.5143  12.5198  12.5212  12.5326  12.5399
    12.5456  12.5540  12.5655  12.5753  12.5829  12.5944  12.6031  12.6143
    12.6214  12.6269  12.6350  12.6391  12.6450  12.6468  12.6592  12.6693
    12.6865  12.6971  12.7006  12.7102  12.7193  12.7252  12.7344  12.7429
    12.7565  12.7652  12.7813  12.7889  12.7934  12.8036  12.8094  12.8273
    12.8442  12.8501  12.8624  12.8771  12.9233  12.9491  12.9620  12.9786
    12.9947  12.9987  13.0319  13.0435  13.1222  13.1442  13.1460  13.1723
    13.1825  13.1949  13.1969  13.2139  13.2263  13.2546  13.2676  13.2774
    13.2858  13.2975  13.3071  13.3106  13.3231  13.3434  13.3500  13.3663
    13.3693  13.3821  13.3892  13.4010  13.4044  13.4092  13.4175  13.4339
    13.4362  13.4629  13.4708  13.4811  13.4905  13.5010  13.5217  13.5239
    13.5291  13.5380  13.5452  13.5613  13.5784  13.5810  13.6068  13.6135
    13.6169  13.6353  13.6617  13.6630  13.6721  13.6857  13.7053  13.7130
    13.7352  13.7453  13.7709  13.8129  13.8582  13.8628  13.8805  13.8917
    13.9072  13.9141  13.9265  13.9362  13.9486  13.9544  13.9584  13.9763
    13.9822  13.9922  14.0120  14.0266  14.0293  14.0358  14.0457  14.0541
    14.0646  14.0765  14.0800  14.0959  14.1023  14.1095  14.1185  14.1252
    14.1401  14.1472  14.1547  14.1628  14.1738  14.1944  14.1960  14.2051
    14.2073  14.2222  14.2389  14.2485  14.2564  14.2622  14.2744  14.2852
    14.2899  14.3017  14.3123  14.3230  14.3248  14.3397  14.3533  14.3710
    14.3739  14.3799  14.3925  14.3970  14.4123  14.4197  14.4378  14.4450
    14.4493  14.4624  14.4804  14.4864  14.5069  14.5147  14.5273  14.5512
    14.6587  14.6752  14.7194  14.7342  14.7557  14.7688  14.7862  14.8050
    14.9179  14.9405  14.9781  15.0024  15.0187  15.0352  15.0615  15.0960
    15.1570  15.1772  15.1934  15.2167  15.2242  15.2520  15.2652  15.2842
    15.2918  15.3119  15.3358  15.3459  15.3689  15.3825  15.3959  15.4058
    15.5563  15.5749  15.5784  15.5875  15.5939  15.6034  15.6198  15.6259
    15.6392  15.6491  15.6770  15.6853  15.6961  15.7016  15.7133  15.7214
    15.7327  15.7492  15.7550  15.7894  15.7923  15.7978  15.8022  15.8350
    15.8408  15.8655  15.8984  15.9067  15.9165  15.9350  15.9464  15.9547
    15.9671  15.9741  15.9952  16.0050  16.0148  16.0422  16.0530  16.0593
    16.0705  16.0960  16.1069  16.1365  16.1452  16.1570  16.1702  16.1950
    16.2000  16.2341  16.2363  16.2456  16.2675  16.3044  16.3192  16.3273
    16.3533  16.3698  16.3961  16.4409  16.4486  16.4788  16.5008  16.5227
    16.5359  16.5437  16.5461  16.5509  16.5667  16.5776  16.5911  16.5994
    16.6034  16.6124  16.6205  16.6363  16.6378  16.6405  16.6619  16.6827
    16.6957  16.7024  16.7247  16.7447  16.8010  16.8207  16.8320  16.8444
    16.8504  16.8686  16.8775  16.8832  16.9053  16.9172  16.9302  16.9348
    16.9396  16.9458  16.9604  16.9762  16.9792  16.9835  16.9991  17.0023
    17.0124  17.0212  17.0359  17.0393  17.0412  17.0627  17.0761  17.0883
    17.0979  17.1070  17.1133  17.1289  17.1318  17.1396  17.1478  17.1608
    17.1636  17.1801  17.1847  17.2013  17.2072  17.2109  17.2294  17.2445
    17.2573  17.2689  17.2808  17.2925  17.3058  17.3116  17.3265  17.3377
    17.3506  17.3749  17.3909  17.3973  17.4161  17.4242  17.4348  17.4465
    17.4618  17.4653  17.4798  17.4845  17.4934  17.5026  17.5053  17.5118
    17.5250  17.5287  17.5398  17.5428  17.5590  17.5619  17.5722  17.5820
    17.5927  17.5997  17.6073  17.6159  17.6246  17.6275  17.6376  17.6502
    17.6516  17.6654  17.6719  17.6837  17.6912  17.6967  17.7013  17.7243
    17.7345  17.7636  17.7771  17.7963  17.8655  17.8917  17.9357  17.9408
    17.9786  18.0112  18.0136  18.0357  18.0392  18.0536  18.0615  18.0859
    18.0913  18.1181  18.1283  18.1347  18.1379  18.1479  18.1522  18.1705
    18.1842  18.1860  18.1925  18.1992  18.2067  18.2123  18.2404  18.2645
    18.2728  18.2795  18.3173  18.3250  18.3350  18.3545  18.3745  18.4060
    18.4134  18.4320  18.4602  18.4796  18.4894  18.4987  18.5072  18.5223
    18.5433  18.5588  18.5639  18.5714  18.6074  18.6111  18.6291  18.6462
    18.6520  18.6652  18.6849  18.6941  18.7205  18.7326  18.7377  18.7634
    18.8090  18.8190  18.8548  18.8683  18.8785  18.8983  18.9067  18.9312
    18.9354  18.9437  18.9543  18.9598  18.9714  18.9858  18.9934  19.0002
    19.0152  19.0314  19.0417  19.0453  19.0641  19.0740  19.0803  19.0915

     highest occupied, lowest unoccupied level (ev):     7.6792    8.4746

!    total energy              =  -37799.93334227 Ry
     estimated scf accuracy    <       0.00000471 Ry

     The total energy is the sum of the following terms:
     one-electron contribution =  -19618.33614195 Ry
     hartree contribution      =   11807.30352241 Ry
     xc contribution           =   -9549.34607912 Ry
     ewald contribution        =  -20437.81418869 Ry
     Hubbard energy            =      -1.74045494 Ry

     convergence has been achieved in  12 iterations

     Writing all to output data dir ./tmp_In0.0Ga1.0As0.5Sb0.5_cube_3x3x3.9/In0.0Ga1.0As0.5Sb0.5_cube_3x3x3.9.save/ :
     XML data file, charge density, pseudopotentials, collected wavefunctions

     init_run     :    229.50s CPU    232.06s WALL (       1 calls)
     electrons    :   8547.55s CPU   8568.06s WALL (       1 calls)

     Called by init_run:
     wfcinit      :    219.44s CPU    221.57s WALL (       1 calls)
     potinit      :      2.04s CPU      2.11s WALL (       1 calls)
     hinit0       :      1.71s CPU      1.74s WALL (       1 calls)

     Called by electrons:
     c_bands      :   8280.46s CPU   8299.89s WALL (      13 calls)
     sum_band     :    261.99s CPU    262.46s WALL (      13 calls)
     v_of_rho     :      3.37s CPU      3.52s WALL (      13 calls)
     mix_rho      :      0.76s CPU      0.77s WALL (      13 calls)

     Called by c_bands:
     init_us_2    :     31.40s CPU     31.85s WALL (      28 calls)
     cegterg      :   8029.03s CPU   8047.00s WALL (      13 calls)

     Called by *egterg:
     cdiaghg      :    738.12s CPU    738.81s WALL (     105 calls)
     h_psi        :   4766.87s CPU   4776.96s WALL (     107 calls)
     g_psi        :      4.08s CPU      4.08s WALL (      93 calls)

     Called by h_psi:
     h_psi:calbec :    843.08s CPU    843.14s WALL (     107 calls)
     vloc_psi     :    655.15s CPU    656.61s WALL (     107 calls)
     add_vuspsi   :    823.23s CPU    826.01s WALL (     107 calls)
     vhpsi        :   2437.32s CPU   2437.57s WALL (     107 calls)

     General routines
     calbec       :   1071.52s CPU   1071.61s WALL (     228 calls)
     fft          :      3.11s CPU      3.23s WALL (     131 calls)
     ffts         :      0.18s CPU      0.19s WALL (      13 calls)
     fftw         :    666.66s CPU    668.10s WALL (  161424 calls)

     Parallel routines

     Hubbard U routines
     new_ns       :     59.96s CPU     59.97s WALL (      13 calls)
     vhpsi        :   2437.32s CPU   2437.57s WALL (     107 calls)

     PWSCF        :      2h26m CPU      2h28m WALL


   This run was terminated on:  21:56:49  16Jun2025            

=------------------------------------------------------------------------------=
   JOB DONE.
=------------------------------------------------------------------------------=
