
     Program PWSCF v.7.3.1 starts on 17Jun2025 at  6:27:31 

     This program is part of the open-source Quantum ESPRESSO suite
     for quantum simulation of materials; please cite
         "P. Giannozzi et al., J. Phys.:Condens. Matter 21 395502 (2009);
         "P. Giannozzi et al., J. Phys.:Condens. Matter 29 465901 (2017);
         "P. Giannozzi et al., J. Chem. Phys. 152 154105 (2020);
          URL http://www.quantum-espresso.org", 
     in publications or presentations arising from this work. More details at
     http://www.quantum-espresso.org/quote

     Parallel version (MPI), running on   640 processors

     MPI processes distributed on     5 nodes
     480298 MiB available memory on the printing compute node when the environment starts

     Reading input from In0.0Ga1.0As0.75Sb0.25_cube_3x3x3.9.scf.in
Warning: card &CELL ignored
Warning: card   CELL_DOFREE = 'ALL', ignored
Warning: card / ignored

     Current dimensions of program PWSCF are:
     Max number of different atomic species (ntypx) = 10
     Max number of k-points (npk) =  40000
     Max angular momentum in pseudopotentials (lmaxx) =  4

     K-points division:     npool     =       8
     R & G space division:  proc/nbgrp/npool/nimage =      80
     Subspace diagonalization in iterative solution of the eigenvalue problem:
     one sub-group per band group will be used
     custom distributed-memory algorithm (size of sub-group:  8*  8 procs)


     Parallelization info
     --------------------
     sticks:   dense  smooth     PW     G-vecs:    dense   smooth      PW
     Min         515     515    132                78669    78669   10284
     Max         516     516    133                78675    78675   10289
     Sum       41201   41201  10605              6293725  6293725  822961

     Using Slab Decomposition



     bravais-lattice index     =            1
     lattice parameter (alat)  =      32.8492  a.u.
     unit-cell volume          =   35446.4426 (a.u.)^3
     number of atoms/cell      =          216
     number of atomic types    =            4
     number of electrons       =      3024.00
     number of Kohn-Sham states=         2160
     kinetic-energy cutoff     =     120.0000  Ry
     charge density cutoff     =     480.0000  Ry
     scf convergence threshold =      1.0E-05
     mixing beta               =       0.6500
     number of iterations used =            8  plain     mixing
     Exchange-correlation= PBE
                           (   1   4   3   4   0   0   0)
     Hubbard projectors: atomic
     Hubbard parameters of DFT+U (Dudarev formulation) in eV:
     U(As-4p) =  5.8400
     U(Ga-4p) = -3.2650
     U(In-5p) = -0.9725
     U(Sb-5p) =  4.8900

     Internal variables: lda_plus_u =T, lda_plus_u_kind = 0

     celldm(1)=  32.849156  celldm(2)=   0.000000  celldm(3)=   0.000000
     celldm(4)=   0.000000  celldm(5)=   0.000000  celldm(6)=   0.000000

     crystal axes: (cart. coord. in units of alat)
               a(1) = (   1.000000   0.000000   0.000000 )  
               a(2) = (   0.000000   1.000000   0.000000 )  
               a(3) = (   0.000000   0.000000   1.000000 )  

     reciprocal axes: (cart. coord. in units 2 pi/alat)
               b(1) = (  1.000000  0.000000  0.000000 )  
               b(2) = (  0.000000  1.000000  0.000000 )  
               b(3) = (  0.000000  0.000000  1.000000 )  


     PseudoPot. # 1 for As read from file:
     /work/i254/i254/gentles/data/pseudos/As.pbe.NC-SR.standard.v0.5.UPF
     MD5 check sum: bfe1a874457ce592347346129958e7cf
     Pseudo is Norm-conserving + core correction, Zval = 15.0
     Generated using ONCVPSP code by D. R. Hamann
     Using radial grid of 1358 points,  6 beta functions with: 
                l(1) =   0
                l(2) =   0
                l(3) =   1
                l(4) =   1
                l(5) =   2
                l(6) =   2

     PseudoPot. # 2 for Ga read from file:
     /work/i254/i254/gentles/data/pseudos/Ga.pbe.NC-SR.standard.v0.5.UPF
     MD5 check sum: 2bb81bf6f0a8d9832cf3329850435ecf
     Pseudo is Norm-conserving + core correction, Zval = 13.0
     Generated using ONCVPSP code by D. R. Hamann
     Using radial grid of 1902 points,  6 beta functions with: 
                l(1) =   0
                l(2) =   0
                l(3) =   1
                l(4) =   1
                l(5) =   2
                l(6) =   2

     PseudoPot. # 3 for In read from file:
     /work/i254/i254/gentles/data/pseudos/In.pbe.NC-SR.standard.v0.5.UPF
     MD5 check sum: 835f4bf908c982ff75c88e16816a8d7f
     Pseudo is Norm-conserving + core correction, Zval = 13.0
     Generated using ONCVPSP code by D. R. Hamann
     Using radial grid of 1964 points,  6 beta functions with: 
                l(1) =   0
                l(2) =   0
                l(3) =   1
                l(4) =   1
                l(5) =   2
                l(6) =   2

     PseudoPot. # 4 for Sb read from file:
     /work/i254/i254/gentles/data/pseudos/Sb.pbe.NC-SR.standard.v0.5.UPF
     MD5 check sum: 127f69b6101c45666faeae1b5d611565
     Pseudo is Norm-conserving + core correction, Zval = 15.0
     Generated using ONCVPSP code by D. R. Hamann
     Using radial grid of 1434 points,  6 beta functions with: 
                l(1) =   0
                l(2) =   0
                l(3) =   1
                l(4) =   1
                l(5) =   2
                l(6) =   2

     atomic species   valence    mass     pseudopotential
     As               15.00    74.92160     As( 1.00)
     Ga               13.00    69.72300     Ga( 1.00)
     In               13.00   114.81800     In( 1.00)
     Sb               15.00   121.76000     Sb( 1.00)

     No symmetry found



   Cartesian axes

     site n.     atom                  positions (alat units)
         1        Ga     tau(   1) = (   0.0006870  -0.0084910  -0.0047720  )
         2        Ga     tau(   2) = (   0.0028650   0.1783600   0.1685310  )
         3        Ga     tau(   3) = (   0.1733150  -0.0024540   0.1647940  )
         4        Ga     tau(   4) = (   0.1778060   0.1671750  -0.0007660  )
         5        Sb     tau(   5) = (   0.0840980   0.0840450   0.0820630  )
         6        As     tau(   6) = (   0.0855190   0.2588020   0.2498140  )
         7        Sb     tau(   7) = (   0.2567140   0.0863350   0.2513560  )
         8        As     tau(   8) = (   0.2540790   0.2532370   0.0833690  )
         9        Ga     tau(   9) = (  -0.0032380  -0.0058370   0.3380180  )
        10        Ga     tau(  10) = (   0.0008550   0.1778420   0.5013070  )
        11        Ga     tau(  11) = (   0.1784340  -0.0000140   0.5011970  )
        12        Ga     tau(  12) = (   0.1669330   0.1768070   0.3319710  )
        13        Sb     tau(  13) = (   0.0853070   0.0850220   0.4183360  )
        14        As     tau(  14) = (   0.0868880   0.2531920   0.5834390  )
        15        As     tau(  15) = (   0.2534450   0.0859080   0.5847310  )
        16        As     tau(  16) = (   0.2502900   0.2521450   0.4174860  )
        17        Ga     tau(  17) = (   0.0037980  -0.0002800   0.6752090  )
        18        Ga     tau(  18) = (   0.0038910   0.1684260   0.8242850  )
        19        Ga     tau(  19) = (   0.1688820   0.0003790   0.8337430  )
        20        Ga     tau(  20) = (   0.1685930   0.1672750   0.6654670  )
        21        As     tau(  21) = (   0.0890460   0.0842000   0.7495390  )
        22        Sb     tau(  22) = (   0.0860850   0.2532820   0.9173710  )
        23        As     tau(  23) = (   0.2537050   0.0829870   0.9142910  )
        24        As     tau(  24) = (   0.2530090   0.2487640   0.7482890  )
        25        Ga     tau(  25) = (  -0.0026140   0.3406900   0.0038590  )
        26        Ga     tau(  26) = (   0.0051170   0.4974160   0.1717380  )
        27        Ga     tau(  27) = (   0.1687870   0.3361150   0.1645190  )
        28        Ga     tau(  28) = (   0.1666200   0.4993670  -0.0000210  )
        29        As     tau(  29) = (   0.0849080   0.4183560   0.0840440  )
        30        As     tau(  30) = (   0.0899460   0.5804390   0.2500100  )
        31        As     tau(  31) = (   0.2497820   0.4172510   0.2490170  )
        32        As     tau(  32) = (   0.2489330   0.5792920   0.0849840  )
        33        Ga     tau(  33) = (   0.0004130   0.3370510   0.3336280  )
        34        Ga     tau(  34) = (   0.0062440   0.4962180   0.5049690  )
        35        Ga     tau(  35) = (   0.1691000   0.3351650   0.5001710  )
        36        Ga     tau(  36) = (   0.1695680   0.4991230   0.3345040  )
        37        As     tau(  37) = (   0.0859340   0.4166070   0.4174190  )
        38        As     tau(  38) = (   0.0862970   0.5842250   0.5834780  )
        39        As     tau(  39) = (   0.2506080   0.4166740   0.5834050  )
        40        As     tau(  40) = (   0.2492700   0.5843680   0.4167260  )
        41        Ga     tau(  41) = (  -0.0028140   0.3301920   0.6619890  )
        42        Ga     tau(  42) = (  -0.0031360   0.5036480   0.8380050  )
        43        Ga     tau(  43) = (   0.1777030   0.3354280   0.8323110  )
        44        Ga     tau(  44) = (   0.1719750   0.5040830   0.6625720  )
        45        Sb     tau(  45) = (   0.0838730   0.4184810   0.7492090  )
        46        As     tau(  46) = (   0.0844140   0.5824240   0.9166170  )
        47        As     tau(  47) = (   0.2533670   0.4189720   0.9178190  )
        48        As     tau(  48) = (   0.2523610   0.5833830   0.7482490  )
        49        Ga     tau(  49) = (   0.0064990   0.6701020  -0.0034510  )
        50        Ga     tau(  50) = (  -0.0004370   0.8292280   0.1567940  )
        51        Ga     tau(  51) = (   0.1687960   0.6650950   0.1663660  )
        52        Ga     tau(  52) = (   0.1667530   0.8359290   0.0028930  )
        53        As     tau(  53) = (   0.0874060   0.7485320   0.0819480  )
        54        Sb     tau(  54) = (   0.0855260   0.9109790   0.2500750  )
        55        As     tau(  55) = (   0.2497320   0.7468490   0.2518690  )
        56        As     tau(  56) = (   0.2530130   0.9168310   0.0820960  )
        57        Ga     tau(  57) = (   0.0123070   0.6633540   0.3328010  )
        58        Ga     tau(  58) = (  -0.0017820   0.8271650   0.4968610  )
        59        Ga     tau(  59) = (   0.1676920   0.6665100   0.5011320  )
        60        Ga     tau(  60) = (   0.1728610   0.8273190   0.3398780  )
        61        As     tau(  61) = (   0.0868780   0.7478240   0.4185670  )
        62        Sb     tau(  62) = (   0.0868930   0.9128620   0.5844230  )
        63        As     tau(  63) = (   0.2524220   0.7473150   0.5840180  )
        64        As     tau(  64) = (   0.2563050   0.9135330   0.4189600  )
        65        Ga     tau(  65) = (   0.0012690   0.6649460   0.6659370  )
        66        Ga     tau(  66) = (   0.0019350   0.8309840   0.8335220  )
        67        Ga     tau(  67) = (   0.1628560   0.6603600   0.8277650  )
        68        Ga     tau(  68) = (   0.1724770   0.8262750   0.6717090  )
        69        As     tau(  69) = (   0.0825840   0.7466360   0.7493580  )
        70        As     tau(  70) = (   0.0864000   0.9140320   0.9144980  )
        71        Sb     tau(  71) = (   0.2497010   0.7478830   0.9144210  )
        72        As     tau(  72) = (   0.2505060   0.9176480   0.7498680  )
        73        Ga     tau(  73) = (   0.3338920   0.0008720  -0.0021120  )
        74        Ga     tau(  74) = (   0.3410800   0.1717600   0.1612930  )
        75        Ga     tau(  75) = (   0.4945860  -0.0029750   0.1627010  )
        76        Ga     tau(  76) = (   0.4997050   0.1673100  -0.0005280  )
        77        As     tau(  77) = (   0.4170720   0.0834590   0.0794250  )
        78        As     tau(  78) = (   0.4158550   0.2532960   0.2493150  )
        79        Sb     tau(  79) = (   0.5777540   0.0869060   0.2508210  )
        80        As     tau(  80) = (   0.5785730   0.2528250   0.0843080  )
        81        Ga     tau(  81) = (   0.3405340  -0.0035480   0.3393080  )
        82        Ga     tau(  82) = (   0.3325410   0.1680820   0.4998410  )
        83        Ga     tau(  83) = (   0.4979810  -0.0015870   0.5015470  )
        84        Ga     tau(  84) = (   0.4919550   0.1724770   0.3384630  )
        85        As     tau(  85) = (   0.4163120   0.0840570   0.4212740  )
        86        As     tau(  86) = (   0.4148400   0.2500550   0.5821120  )
        87        As     tau(  87) = (   0.5785520   0.0826160   0.5819620  )
        88        As     tau(  88) = (   0.5817500   0.2496950   0.4166420  )
        89        Ga     tau(  89) = (   0.3322350   0.0006870   0.6669940  )
        90        Ga     tau(  90) = (   0.3351150   0.1669220   0.8318310  )
        91        Ga     tau(  91) = (   0.4969630   0.0029150   0.8330350  )
        92        Ga     tau(  92) = (   0.4930370   0.1637090   0.6619310  )
        93        As     tau(  93) = (   0.4149180   0.0829450   0.7490250  )
        94        As     tau(  94) = (   0.4147820   0.2506010   0.9184220  )
        95        As     tau(  95) = (   0.5793360   0.0818280   0.9172320  )
        96        Sb     tau(  96) = (   0.5807130   0.2506740   0.7500150  )
        97        Ga     tau(  97) = (   0.3347260   0.3358750   0.0009680  )
        98        Ga     tau(  98) = (   0.3337220   0.4989600   0.1675690  )
        99        Ga     tau(  99) = (   0.4983120   0.3359370   0.1678930  )
       100        Ga     tau( 100) = (   0.4995610   0.5010870   0.0006590  )
       101        As     tau( 101) = (   0.4169630   0.4183570   0.0839410  )
       102        As     tau( 102) = (   0.4165990   0.5817780   0.2501310  )
       103        As     tau( 103) = (   0.5832500   0.4163660   0.2490340  )
       104        As     tau( 104) = (   0.5835070   0.5804140   0.0848910  )
       105        Ga     tau( 105) = (   0.3289120   0.3314550   0.3290930  )
       106        Ga     tau( 106) = (   0.3281670   0.5031190   0.5026110  )
       107        Ga     tau( 107) = (   0.5042910   0.3289770   0.5042350  )
       108        Ga     tau( 108) = (   0.5038730   0.5022370   0.3290450  )
       109        Sb     tau( 109) = (   0.4173010   0.4164570   0.4169630  )
       110        As     tau( 110) = (   0.4126950   0.5823870   0.5828250  )
       111        As     tau( 111) = (   0.5821260   0.4188700   0.5815940  )
       112        As     tau( 112) = (   0.5831200   0.5831100   0.4150410  )
       113        Ga     tau( 113) = (   0.3332140   0.3324570   0.6658570  )
       114        Ga     tau( 114) = (   0.3328230   0.4998570   0.8321080  )
       115        Ga     tau( 115) = (   0.4943240   0.3372040   0.8382110  )
       116        Ga     tau( 116) = (   0.4927980   0.4947610   0.6612490  )
       117        As     tau( 117) = (   0.4130640   0.4154190   0.7494900  )
       118        As     tau( 118) = (   0.4148250   0.5794770   0.9163020  )
       119        As     tau( 119) = (   0.5807740   0.4181660   0.9194730  )
       120        Sb     tau( 120) = (   0.5796250   0.5790410   0.7502940  )
       121        Ga     tau( 121) = (   0.3319620   0.6559760   0.0006170  )
       122        Ga     tau( 122) = (   0.3282270   0.8349330   0.1722610  )
       123        Ga     tau( 123) = (   0.5035930   0.6614620   0.1712950  )
       124        Ga     tau( 124) = (   0.4965700   0.8411030  -0.0008150  )
       125        Sb     tau( 125) = (   0.4154430   0.7483940   0.0857450  )
       126        As     tau( 126) = (   0.4163050   0.9149820   0.2505630  )
       127        As     tau( 127) = (   0.5829780   0.7469050   0.2516560  )
       128        As     tau( 128) = (   0.5801830   0.9166800   0.0827120  )
       129        Ga     tau( 129) = (   0.3336730   0.6649710   0.3324890  )
       130        Ga     tau( 130) = (   0.3355210   0.8306110   0.5022350  )
       131        Ga     tau( 131) = (   0.4932140   0.6604640   0.4946590  )
       132        Ga     tau( 132) = (   0.4990280   0.8313530   0.3316430  )
       133        As     tau( 133) = (   0.4150820   0.7484620   0.4146410  )
       134        As     tau( 134) = (   0.4145520   0.9170410   0.5847820  )
       135        Sb     tau( 135) = (   0.5787520   0.7481750   0.5815730  )
       136        As     tau( 136) = (   0.5786440   0.9167760   0.4151940  )
       137        Ga     tau( 137) = (   0.3343100   0.6670890   0.6664870  )
       138        Ga     tau( 138) = (   0.3360790   0.8384360   0.8302460  )
       139        Ga     tau( 139) = (   0.4890540   0.6670550   0.8330810  )
       140        Ga     tau( 140) = (   0.4956930   0.8376220   0.6707420  )
       141        As     tau( 141) = (   0.4135090   0.7524610   0.7489460  )
       142        As     tau( 142) = (   0.4157170   0.9204570   0.9146260  )
       143        Sb     tau( 143) = (   0.5816530   0.7494330   0.9168690  )
       144        As     tau( 144) = (   0.5788930   0.9211640   0.7508900  )
       145        Ga     tau( 145) = (   0.6609880  -0.0031600  -0.0033440  )
       146        Ga     tau( 146) = (   0.6648140   0.1774790   0.1681930  )
       147        Ga     tau( 147) = (   0.8375380  -0.0058680   0.1609800  )
       148        Ga     tau( 148) = (   0.8405510   0.1744940   0.0041050  )
       149        Sb     tau( 149) = (   0.7483370   0.0854940   0.0820690  )
       150        As     tau( 150) = (   0.7481540   0.2564820   0.2519800  )
       151        Sb     tau( 151) = (   0.9154960   0.0865170   0.2511670  )
       152        As     tau( 152) = (   0.9181620   0.2576240   0.0872580  )
       153        Ga     tau( 153) = (   0.6637960   0.0014610   0.3388150  )
       154        Ga     tau( 154) = (   0.6604210   0.1631500   0.4974660  )
       155        Ga     tau( 155) = (   0.8331480   0.0028520   0.4940540  )
       156        Ga     tau( 156) = (   0.8265220   0.1735240   0.3369740  )
       157        As     tau( 157) = (   0.7474340   0.0856760   0.4167250  )
       158        Sb     tau( 158) = (   0.7483110   0.2532970   0.5819380  )
       159        Sb     tau( 159) = (   0.9173660   0.0862680   0.5867390  )
       160        As     tau( 160) = (   0.9169170   0.2552060   0.4149370  )
       161        Ga     tau( 161) = (   0.6593420   0.0041470   0.6682230  )
       162        Ga     tau( 162) = (   0.6652000   0.1585020   0.8358770  )
       163        Ga     tau( 163) = (   0.8270380  -0.0062590   0.8301910  )
       164        Ga     tau( 164) = (   0.8285060   0.1670220   0.6762520  )
       165        As     tau( 165) = (   0.7455300   0.0794970   0.7516070  )
       166        Sb     tau( 166) = (   0.7493550   0.2544460   0.9164770  )
       167        Sb     tau( 167) = (   0.9166320   0.0830150   0.9117550  )
       168        As     tau( 168) = (   0.9172510   0.2506110   0.7479040  )
       169        Ga     tau( 169) = (   0.6592990   0.3376470   0.0051790  )
       170        Ga     tau( 170) = (   0.6651810   0.4978300   0.1667080  )
       171        Ga     tau( 171) = (   0.8326210   0.3363450   0.1685590  )
       172        Ga     tau( 172) = (   0.8289000   0.4934400  -0.0018360  )
       173        As     tau( 173) = (   0.7476030   0.4157740   0.0854360  )
       174        As     tau( 174) = (   0.7443180   0.5812010   0.2497720  )
       175        As     tau( 175) = (   0.9168550   0.4172430   0.2504140  )
       176        Sb     tau( 176) = (   0.9173990   0.5820190   0.0826760  )
       177        Ga     tau( 177) = (   0.6636630   0.3350410   0.3344870  )
       178        Ga     tau( 178) = (   0.6653830   0.5002130   0.4976980  )
       179        Ga     tau( 179) = (   0.8368160   0.3406280   0.4947020  )
       180        Ga     tau( 180) = (   0.8286040   0.4976260   0.3284080  )
       181        As     tau( 181) = (   0.7473470   0.4180360   0.4144600  )
       182        As     tau( 182) = (   0.7510320   0.5790110   0.5813940  )
       183        As     tau( 183) = (   0.9177680   0.4174420   0.5833600  )
       184        Sb     tau( 184) = (   0.9177840   0.5816860   0.4174350  )
       185        Ga     tau( 185) = (   0.6662840   0.3451150   0.6677630  )
       186        Ga     tau( 186) = (   0.6694620   0.4962350   0.8386630  )
       187        Ga     tau( 187) = (   0.8388300   0.3379350   0.8277930  )
       188        Ga     tau( 188) = (   0.8354150   0.5012160   0.6665450  )
       189        As     tau( 189) = (   0.7532120   0.4210670   0.7503740  )
       190        As     tau( 190) = (   0.7509750   0.5799350   0.9189650  )
       191        As     tau( 191) = (   0.9155090   0.4178150   0.9164190  )
       192        As     tau( 192) = (   0.9177660   0.5835720   0.7502390  )
       193        Ga     tau( 193) = (   0.6689070   0.6602880   0.0030690  )
       194        Ga     tau( 194) = (   0.6592890   0.8273910   0.1618930  )
       195        Ga     tau( 195) = (   0.8231740   0.6644330   0.1673520  )
       196        Ga     tau( 196) = (   0.8310400   0.8296820  -0.0022770  )
       197        As     tau( 197) = (   0.7468200   0.7481620   0.0817180  )
       198        Sb     tau( 198) = (   0.7476160   0.9124650   0.2502110  )
       199        Sb     tau( 199) = (   0.9175080   0.7462190   0.2505320  )
       200        As     tau( 200) = (   0.9165770   0.9114640   0.0767840  )
       201        Ga     tau( 201) = (   0.6664230   0.6655930   0.3343500  )
       202        Ga     tau( 202) = (   0.6629030   0.8324540   0.4913950  )
       203        Ga     tau( 203) = (   0.8291220   0.6682250   0.5042610  )
       204        Ga     tau( 204) = (   0.8331380   0.8297110   0.3420360  )
       205        As     tau( 205) = (   0.7480540   0.7468850   0.4180610  )
       206        Sb     tau( 206) = (   0.7487990   0.9166830   0.5827130  )
       207        As     tau( 207) = (   0.9190220   0.7464420   0.5822410  )
       208        As     tau( 208) = (   0.9149920   0.9135620   0.4197850  )
       209        Ga     tau( 209) = (   0.6701830   0.6602950   0.6623630  )
       210        Ga     tau( 210) = (   0.6643420   0.8401960   0.8304870  )
       211        Ga     tau( 211) = (   0.8377400   0.6617060   0.8386500  )
       212        Ga     tau( 212) = (   0.8458540   0.8334810   0.6653350  )
       213        Sb     tau( 213) = (   0.7540060   0.7497180   0.7498600  )
       214        As     tau( 214) = (   0.7471490   0.9147210   0.9168790  )
       215        As     tau( 215) = (   0.9189660   0.7492280   0.9170310  )
       216        As     tau( 216) = (   0.9200010   0.9158250   0.7532480  )

     number of k points=     8
                       cart. coord. in units 2pi/alat
        k(    1) = (   0.0000000   0.0000000   0.0000000), wk =   0.2500000
        k(    2) = (   0.0000000   0.0000000  -0.5000000), wk =   0.2500000
        k(    3) = (   0.0000000  -0.5000000  -0.5000000), wk =   0.2500000
        k(    4) = (  -0.5000000  -0.5000000  -0.5000000), wk =   0.2500000
        k(    5) = (  -0.5000000   0.0000000   0.0000000), wk =   0.2500000
        k(    6) = (   0.0000000  -0.5000000   0.0000000), wk =   0.2500000
        k(    7) = (  -0.5000000   0.0000000   0.5000000), wk =   0.2500000
        k(    8) = (  -0.5000000   0.5000000   0.0000000), wk =   0.2500000

     Dense  grid:  6293725 G-vectors     FFT dimensions: ( 240, 240, 240)

     Estimated max dynamical RAM per process >       2.44 GB

     Estimated total dynamical RAM >    1553.11 GB

     Initial potential from superposition of free atoms

     starting charge    3023.6766, renormalised to    3024.0000

     STARTING HUBBARD OCCUPATIONS:

     =================== HUBBARD OCCUPATIONS ===================
     ------------------------ ATOM    1 ------------------------
     Tr[ns(  1)] =   1.00000
     eigenvalues:
       0.167  0.167  0.167
     eigenvectors (columns):
       1.000  0.000  0.000
       0.000  1.000  0.000
       0.000  0.000  1.000
     occupation matrix ns (before diag.):
       0.167  0.000  0.000
       0.000  0.167  0.000
       0.000  0.000  0.167
     ------------------------ ATOM    2 ------------------------
     Tr[ns(  2)] =   1.00000
     eigenvalues:
       0.167  0.167  0.167
     eigenvectors (columns):
       1.000  0.000  0.000
       0.000  1.000  0.000
       0.000  0.000  1.000
     occupation matrix ns (before diag.):
       0.167  0.000  0.000
       0.000  0.167  0.000
       0.000  0.000  0.167
     ------------------------ ATOM    3 ------------------------
     Tr[ns(  3)] =   1.00000
     eigenvalues:
       0.167  0.167  0.167
     eigenvectors (columns):
       1.000  0.000  0.000
       0.000  1.000  0.000
       0.000  0.000  1.000
     occupation matrix ns (before diag.):
       0.167  0.000  0.000
       0.000  0.167  0.000
       0.000  0.000  0.167
     ------------------------ ATOM    4 ------------------------
     Tr[ns(  4)] =   1.00000
     eigenvalues:
       0.167  0.167  0.167
     eigenvectors (columns):
       1.000  0.000  0.000
       0.000  1.000  0.000
       0.000  0.000  1.000
     occupation matrix ns (before diag.):
       0.167  0.000  0.000
       0.000  0.167  0.000
       0.000  0.000  0.167
     ------------------------ ATOM    5 ------------------------
     Tr[ns(  5)] =   3.00000
     eigenvalues:
       0.500  0.500  0.500
     eigenvectors (columns):
       1.000  0.000  0.000
       0.000  1.000  0.000
       0.000  0.000  1.000
     occupation matrix ns (before diag.):
       0.500  0.000  0.000
       0.000  0.500  0.000
       0.000  0.000  0.500
     ------------------------ ATOM    6 ------------------------
     Tr[ns(  6)] =   3.00000
     eigenvalues:
       0.500  0.500  0.500
     eigenvectors (columns):
       1.000  0.000  0.000
       0.000  1.000  0.000
       0.000  0.000  1.000
     occupation matrix ns (before diag.):
       0.500  0.000  0.000
       0.000  0.500  0.000
       0.000  0.000  0.500
     ------------------------ ATOM    7 ------------------------
     Tr[ns(  7)] =   3.00000
     eigenvalues:
       0.500  0.500  0.500
     eigenvectors (columns):
       1.000  0.000  0.000
       0.000  1.000  0.000
       0.000  0.000  1.000
     occupation matrix ns (before diag.):
       0.500  0.000  0.000
       0.000  0.500  0.000
       0.000  0.000  0.500
     ------------------------ ATOM    8 ------------------------
     Tr[ns(  8)] =   3.00000
     eigenvalues:
       0.500  0.500  0.500
     eigenvectors (columns):
       1.000  0.000  0.000
       0.000  1.000  0.000
       0.000  0.000  1.000
     occupation matrix ns (before diag.):
       0.500  0.000  0.000
       0.000  0.500  0.000
       0.000  0.000  0.500
     ------------------------ ATOM    9 ------------------------
     Tr[ns(  9)] =   1.00000
     eigenvalues:
       0.167  0.167  0.167
     eigenvectors (columns):
       1.000  0.000  0.000
       0.000  1.000  0.000
       0.000  0.000  1.000
     occupation matrix ns (before diag.):
       0.167  0.000  0.000
       0.000  0.167  0.000
       0.000  0.000  0.167
     ------------------------ ATOM   10 ------------------------
     Tr[ns( 10)] =   1.00000
     eigenvalues:
       0.167  0.167  0.167
     eigenvectors (columns):
       1.000  0.000  0.000
       0.000  1.000  0.000
       0.000  0.000  1.000
     occupation matrix ns (before diag.):
       0.167  0.000  0.000
       0.000  0.167  0.000
       0.000  0.000  0.167
     ------------------------ ATOM   11 ------------------------
     Tr[ns( 11)] =   1.00000
     eigenvalues:
       0.167  0.167  0.167
     eigenvectors (columns):
       1.000  0.000  0.000
       0.000  1.000  0.000
       0.000  0.000  1.000
     occupation matrix ns (before diag.):
       0.167  0.000  0.000
       0.000  0.167  0.000
       0.000  0.000  0.167
     ------------------------ ATOM   12 ------------------------
     Tr[ns( 12)] =   1.00000
     eigenvalues:
       0.167  0.167  0.167
     eigenvectors (columns):
       1.000  0.000  0.000
       0.000  1.000  0.000
       0.000  0.000  1.000
     occupation matrix ns (before diag.):
       0.167  0.000  0.000
       0.000  0.167  0.000
       0.000  0.000  0.167
     ------------------------ ATOM   13 ------------------------
     Tr[ns( 13)] =   3.00000
     eigenvalues:
       0.500  0.500  0.500
     eigenvectors (columns):
       1.000  0.000  0.000
       0.000  1.000  0.000
       0.000  0.000  1.000
     occupation matrix ns (before diag.):
       0.500  0.000  0.000
       0.000  0.500  0.000
       0.000  0.000  0.500
     ------------------------ ATOM   14 ------------------------
     Tr[ns( 14)] =   3.00000
     eigenvalues:
       0.500  0.500  0.500
     eigenvectors (columns):
       1.000  0.000  0.000
       0.000  1.000  0.000
       0.000  0.000  1.000
     occupation matrix ns (before diag.):
       0.500  0.000  0.000
       0.000  0.500  0.000
       0.000  0.000  0.500
     ------------------------ ATOM   15 ------------------------
     Tr[ns( 15)] =   3.00000
     eigenvalues:
       0.500  0.500  0.500
     eigenvectors (columns):
       1.000  0.000  0.000
       0.000  1.000  0.000
       0.000  0.000  1.000
     occupation matrix ns (before diag.):
       0.500  0.000  0.000
       0.000  0.500  0.000
       0.000  0.000  0.500
     ------------------------ ATOM   16 ------------------------
     Tr[ns( 16)] =   3.00000
     eigenvalues:
       0.500  0.500  0.500
     eigenvectors (columns):
       1.000  0.000  0.000
       0.000  1.000  0.000
       0.000  0.000  1.000
     occupation matrix ns (before diag.):
       0.500  0.000  0.000
       0.000  0.500  0.000
       0.000  0.000  0.500
     ------------------------ ATOM   17 ------------------------
     Tr[ns( 17)] =   1.00000
     eigenvalues:
       0.167  0.167  0.167
     eigenvectors (columns):
       1.000  0.000  0.000
       0.000  1.000  0.000
       0.000  0.000  1.000
     occupation matrix ns (before diag.):
       0.167  0.000  0.000
       0.000  0.167  0.000
       0.000  0.000  0.167
     ------------------------ ATOM   18 ------------------------
     Tr[ns( 18)] =   1.00000
     eigenvalues:
       0.167  0.167  0.167
     eigenvectors (columns):
       1.000  0.000  0.000
       0.000  1.000  0.000
       0.000  0.000  1.000
     occupation matrix ns (before diag.):
       0.167  0.000  0.000
       0.000  0.167  0.000
       0.000  0.000  0.167
     ------------------------ ATOM   19 ------------------------
     Tr[ns( 19)] =   1.00000
     eigenvalues:
       0.167  0.167  0.167
     eigenvectors (columns):
       1.000  0.000  0.000
       0.000  1.000  0.000
       0.000  0.000  1.000
     occupation matrix ns (before diag.):
       0.167  0.000  0.000
       0.000  0.167  0.000
       0.000  0.000  0.167
     ------------------------ ATOM   20 ------------------------
     Tr[ns( 20)] =   1.00000
     eigenvalues:
       0.167  0.167  0.167
     eigenvectors (columns):
       1.000  0.000  0.000
       0.000  1.000  0.000
       0.000  0.000  1.000
     occupation matrix ns (before diag.):
       0.167  0.000  0.000
       0.000  0.167  0.000
       0.000  0.000  0.167
     ------------------------ ATOM   21 ------------------------
     Tr[ns( 21)] =   3.00000
     eigenvalues:
       0.500  0.500  0.500
     eigenvectors (columns):
       1.000  0.000  0.000
       0.000  1.000  0.000
       0.000  0.000  1.000
     occupation matrix ns (before diag.):
       0.500  0.000  0.000
       0.000  0.500  0.000
       0.000  0.000  0.500
     ------------------------ ATOM   22 ------------------------
     Tr[ns( 22)] =   3.00000
     eigenvalues:
       0.500  0.500  0.500
     eigenvectors (columns):
       1.000  0.000  0.000
       0.000  1.000  0.000
       0.000  0.000  1.000
     occupation matrix ns (before diag.):
       0.500  0.000  0.000
       0.000  0.500  0.000
       0.000  0.000  0.500
     ------------------------ ATOM   23 ------------------------
     Tr[ns( 23)] =   3.00000
     eigenvalues:
       0.500  0.500  0.500
     eigenvectors (columns):
       1.000  0.000  0.000
       0.000  1.000  0.000
       0.000  0.000  1.000
     occupation matrix ns (before diag.):
       0.500  0.000  0.000
       0.000  0.500  0.000
       0.000  0.000  0.500
     ------------------------ ATOM   24 ------------------------
     Tr[ns( 24)] =   3.00000
     eigenvalues:
       0.500  0.500  0.500
     eigenvectors (columns):
       1.000  0.000  0.000
       0.000  1.000  0.000
       0.000  0.000  1.000
     occupation matrix ns (before diag.):
       0.500  0.000  0.000
       0.000  0.500  0.000
       0.000  0.000  0.500
     ------------------------ ATOM   25 ------------------------
     Tr[ns( 25)] =   1.00000
     eigenvalues:
       0.167  0.167  0.167
     eigenvectors (columns):
       1.000  0.000  0.000
       0.000  1.000  0.000
       0.000  0.000  1.000
     occupation matrix ns (before diag.):
       0.167  0.000  0.000
       0.000  0.167  0.000
       0.000  0.000  0.167
     ------------------------ ATOM   26 ------------------------
     Tr[ns( 26)] =   1.00000
     eigenvalues:
       0.167  0.167  0.167
     eigenvectors (columns):
       1.000  0.000  0.000
       0.000  1.000  0.000
       0.000  0.000  1.000
     occupation matrix ns (before diag.):
       0.167  0.000  0.000
       0.000  0.167  0.000
       0.000  0.000  0.167
     ------------------------ ATOM   27 ------------------------
     Tr[ns( 27)] =   1.00000
     eigenvalues:
       0.167  0.167  0.167
     eigenvectors (columns):
       1.000  0.000  0.000
       0.000  1.000  0.000
       0.000  0.000  1.000
     occupation matrix ns (before diag.):
       0.167  0.000  0.000
       0.000  0.167  0.000
       0.000  0.000  0.167
     ------------------------ ATOM   28 ------------------------
     Tr[ns( 28)] =   1.00000
     eigenvalues:
       0.167  0.167  0.167
     eigenvectors (columns):
       1.000  0.000  0.000
       0.000  1.000  0.000
       0.000  0.000  1.000
     occupation matrix ns (before diag.):
       0.167  0.000  0.000
       0.000  0.167  0.000
       0.000  0.000  0.167
     ------------------------ ATOM   29 ------------------------
     Tr[ns( 29)] =   3.00000
     eigenvalues:
       0.500  0.500  0.500
     eigenvectors (columns):
       1.000  0.000  0.000
       0.000  1.000  0.000
       0.000  0.000  1.000
     occupation matrix ns (before diag.):
       0.500  0.000  0.000
       0.000  0.500  0.000
       0.000  0.000  0.500
     ------------------------ ATOM   30 ------------------------
     Tr[ns( 30)] =   3.00000
     eigenvalues:
       0.500  0.500  0.500
     eigenvectors (columns):
       1.000  0.000  0.000
       0.000  1.000  0.000
       0.000  0.000  1.000
     occupation matrix ns (before diag.):
       0.500  0.000  0.000
       0.000  0.500  0.000
       0.000  0.000  0.500
     ------------------------ ATOM   31 ------------------------
     Tr[ns( 31)] =   3.00000
     eigenvalues:
       0.500  0.500  0.500
     eigenvectors (columns):
       1.000  0.000  0.000
       0.000  1.000  0.000
       0.000  0.000  1.000
     occupation matrix ns (before diag.):
       0.500  0.000  0.000
       0.000  0.500  0.000
       0.000  0.000  0.500
     ------------------------ ATOM   32 ------------------------
     Tr[ns( 32)] =   3.00000
     eigenvalues:
       0.500  0.500  0.500
     eigenvectors (columns):
       1.000  0.000  0.000
       0.000  1.000  0.000
       0.000  0.000  1.000
     occupation matrix ns (before diag.):
       0.500  0.000  0.000
       0.000  0.500  0.000
       0.000  0.000  0.500
     ------------------------ ATOM   33 ------------------------
     Tr[ns( 33)] =   1.00000
     eigenvalues:
       0.167  0.167  0.167
     eigenvectors (columns):
       1.000  0.000  0.000
       0.000  1.000  0.000
       0.000  0.000  1.000
     occupation matrix ns (before diag.):
       0.167  0.000  0.000
       0.000  0.167  0.000
       0.000  0.000  0.167
     ------------------------ ATOM   34 ------------------------
     Tr[ns( 34)] =   1.00000
     eigenvalues:
       0.167  0.167  0.167
     eigenvectors (columns):
       1.000  0.000  0.000
       0.000  1.000  0.000
       0.000  0.000  1.000
     occupation matrix ns (before diag.):
       0.167  0.000  0.000
       0.000  0.167  0.000
       0.000  0.000  0.167
     ------------------------ ATOM   35 ------------------------
     Tr[ns( 35)] =   1.00000
     eigenvalues:
       0.167  0.167  0.167
     eigenvectors (columns):
       1.000  0.000  0.000
       0.000  1.000  0.000
       0.000  0.000  1.000
     occupation matrix ns (before diag.):
       0.167  0.000  0.000
       0.000  0.167  0.000
       0.000  0.000  0.167
     ------------------------ ATOM   36 ------------------------
     Tr[ns( 36)] =   1.00000
     eigenvalues:
       0.167  0.167  0.167
     eigenvectors (columns):
       1.000  0.000  0.000
       0.000  1.000  0.000
       0.000  0.000  1.000
     occupation matrix ns (before diag.):
       0.167  0.000  0.000
       0.000  0.167  0.000
       0.000  0.000  0.167
     ------------------------ ATOM   37 ------------------------
     Tr[ns( 37)] =   3.00000
     eigenvalues:
       0.500  0.500  0.500
     eigenvectors (columns):
       1.000  0.000  0.000
       0.000  1.000  0.000
       0.000  0.000  1.000
     occupation matrix ns (before diag.):
       0.500  0.000  0.000
       0.000  0.500  0.000
       0.000  0.000  0.500
     ------------------------ ATOM   38 ------------------------
     Tr[ns( 38)] =   3.00000
     eigenvalues:
       0.500  0.500  0.500
     eigenvectors (columns):
       1.000  0.000  0.000
       0.000  1.000  0.000
       0.000  0.000  1.000
     occupation matrix ns (before diag.):
       0.500  0.000  0.000
       0.000  0.500  0.000
       0.000  0.000  0.500
     ------------------------ ATOM   39 ------------------------
     Tr[ns( 39)] =   3.00000
     eigenvalues:
       0.500  0.500  0.500
     eigenvectors (columns):
       1.000  0.000  0.000
       0.000  1.000  0.000
       0.000  0.000  1.000
     occupation matrix ns (before diag.):
       0.500  0.000  0.000
       0.000  0.500  0.000
       0.000  0.000  0.500
     ------------------------ ATOM   40 ------------------------
     Tr[ns( 40)] =   3.00000
     eigenvalues:
       0.500  0.500  0.500
     eigenvectors (columns):
       1.000  0.000  0.000
       0.000  1.000  0.000
       0.000  0.000  1.000
     occupation matrix ns (before diag.):
       0.500  0.000  0.000
       0.000  0.500  0.000
       0.000  0.000  0.500
     ------------------------ ATOM   41 ------------------------
     Tr[ns( 41)] =   1.00000
     eigenvalues:
       0.167  0.167  0.167
     eigenvectors (columns):
       1.000  0.000  0.000
       0.000  1.000  0.000
       0.000  0.000  1.000
     occupation matrix ns (before diag.):
       0.167  0.000  0.000
       0.000  0.167  0.000
       0.000  0.000  0.167
     ------------------------ ATOM   42 ------------------------
     Tr[ns( 42)] =   1.00000
     eigenvalues:
       0.167  0.167  0.167
     eigenvectors (columns):
       1.000  0.000  0.000
       0.000  1.000  0.000
       0.000  0.000  1.000
     occupation matrix ns (before diag.):
       0.167  0.000  0.000
       0.000  0.167  0.000
       0.000  0.000  0.167
     ------------------------ ATOM   43 ------------------------
     Tr[ns( 43)] =   1.00000
     eigenvalues:
       0.167  0.167  0.167
     eigenvectors (columns):
       1.000  0.000  0.000
       0.000  1.000  0.000
       0.000  0.000  1.000
     occupation matrix ns (before diag.):
       0.167  0.000  0.000
       0.000  0.167  0.000
       0.000  0.000  0.167
     ------------------------ ATOM   44 ------------------------
     Tr[ns( 44)] =   1.00000
     eigenvalues:
       0.167  0.167  0.167
     eigenvectors (columns):
       1.000  0.000  0.000
       0.000  1.000  0.000
       0.000  0.000  1.000
     occupation matrix ns (before diag.):
       0.167  0.000  0.000
       0.000  0.167  0.000
       0.000  0.000  0.167
     ------------------------ ATOM   45 ------------------------
     Tr[ns( 45)] =   3.00000
     eigenvalues:
       0.500  0.500  0.500
     eigenvectors (columns):
       1.000  0.000  0.000
       0.000  1.000  0.000
       0.000  0.000  1.000
     occupation matrix ns (before diag.):
       0.500  0.000  0.000
       0.000  0.500  0.000
       0.000  0.000  0.500
     ------------------------ ATOM   46 ------------------------
     Tr[ns( 46)] =   3.00000
     eigenvalues:
       0.500  0.500  0.500
     eigenvectors (columns):
       1.000  0.000  0.000
       0.000  1.000  0.000
       0.000  0.000  1.000
     occupation matrix ns (before diag.):
       0.500  0.000  0.000
       0.000  0.500  0.000
       0.000  0.000  0.500
     ------------------------ ATOM   47 ------------------------
     Tr[ns( 47)] =   3.00000
     eigenvalues:
       0.500  0.500  0.500
     eigenvectors (columns):
       1.000  0.000  0.000
       0.000  1.000  0.000
       0.000  0.000  1.000
     occupation matrix ns (before diag.):
       0.500  0.000  0.000
       0.000  0.500  0.000
       0.000  0.000  0.500
     ------------------------ ATOM   48 ------------------------
     Tr[ns( 48)] =   3.00000
     eigenvalues:
       0.500  0.500  0.500
     eigenvectors (columns):
       1.000  0.000  0.000
       0.000  1.000  0.000
       0.000  0.000  1.000
     occupation matrix ns (before diag.):
       0.500  0.000  0.000
       0.000  0.500  0.000
       0.000  0.000  0.500
     ------------------------ ATOM   49 ------------------------
     Tr[ns( 49)] =   1.00000
     eigenvalues:
       0.167  0.167  0.167
     eigenvectors (columns):
       1.000  0.000  0.000
       0.000  1.000  0.000
       0.000  0.000  1.000
     occupation matrix ns (before diag.):
       0.167  0.000  0.000
       0.000  0.167  0.000
       0.000  0.000  0.167
     ------------------------ ATOM   50 ------------------------
     Tr[ns( 50)] =   1.00000
     eigenvalues:
       0.167  0.167  0.167
     eigenvectors (columns):
       1.000  0.000  0.000
       0.000  1.000  0.000
       0.000  0.000  1.000
     occupation matrix ns (before diag.):
       0.167  0.000  0.000
       0.000  0.167  0.000
       0.000  0.000  0.167
     ------------------------ ATOM   51 ------------------------
     Tr[ns( 51)] =   1.00000
     eigenvalues:
       0.167  0.167  0.167
     eigenvectors (columns):
       1.000  0.000  0.000
       0.000  1.000  0.000
       0.000  0.000  1.000
     occupation matrix ns (before diag.):
       0.167  0.000  0.000
       0.000  0.167  0.000
       0.000  0.000  0.167
     ------------------------ ATOM   52 ------------------------
     Tr[ns( 52)] =   1.00000
     eigenvalues:
       0.167  0.167  0.167
     eigenvectors (columns):
       1.000  0.000  0.000
       0.000  1.000  0.000
       0.000  0.000  1.000
     occupation matrix ns (before diag.):
       0.167  0.000  0.000
       0.000  0.167  0.000
       0.000  0.000  0.167
     ------------------------ ATOM   53 ------------------------
     Tr[ns( 53)] =   3.00000
     eigenvalues:
       0.500  0.500  0.500
     eigenvectors (columns):
       1.000  0.000  0.000
       0.000  1.000  0.000
       0.000  0.000  1.000
     occupation matrix ns (before diag.):
       0.500  0.000  0.000
       0.000  0.500  0.000
       0.000  0.000  0.500
     ------------------------ ATOM   54 ------------------------
     Tr[ns( 54)] =   3.00000
     eigenvalues:
       0.500  0.500  0.500
     eigenvectors (columns):
       1.000  0.000  0.000
       0.000  1.000  0.000
       0.000  0.000  1.000
     occupation matrix ns (before diag.):
       0.500  0.000  0.000
       0.000  0.500  0.000
       0.000  0.000  0.500
     ------------------------ ATOM   55 ------------------------
     Tr[ns( 55)] =   3.00000
     eigenvalues:
       0.500  0.500  0.500
     eigenvectors (columns):
       1.000  0.000  0.000
       0.000  1.000  0.000
       0.000  0.000  1.000
     occupation matrix ns (before diag.):
       0.500  0.000  0.000
       0.000  0.500  0.000
       0.000  0.000  0.500
     ------------------------ ATOM   56 ------------------------
     Tr[ns( 56)] =   3.00000
     eigenvalues:
       0.500  0.500  0.500
     eigenvectors (columns):
       1.000  0.000  0.000
       0.000  1.000  0.000
       0.000  0.000  1.000
     occupation matrix ns (before diag.):
       0.500  0.000  0.000
       0.000  0.500  0.000
       0.000  0.000  0.500
     ------------------------ ATOM   57 ------------------------
     Tr[ns( 57)] =   1.00000
     eigenvalues:
       0.167  0.167  0.167
     eigenvectors (columns):
       1.000  0.000  0.000
       0.000  1.000  0.000
       0.000  0.000  1.000
     occupation matrix ns (before diag.):
       0.167  0.000  0.000
       0.000  0.167  0.000
       0.000  0.000  0.167
     ------------------------ ATOM   58 ------------------------
     Tr[ns( 58)] =   1.00000
     eigenvalues:
       0.167  0.167  0.167
     eigenvectors (columns):
       1.000  0.000  0.000
       0.000  1.000  0.000
       0.000  0.000  1.000
     occupation matrix ns (before diag.):
       0.167  0.000  0.000
       0.000  0.167  0.000
       0.000  0.000  0.167
     ------------------------ ATOM   59 ------------------------
     Tr[ns( 59)] =   1.00000
     eigenvalues:
       0.167  0.167  0.167
     eigenvectors (columns):
       1.000  0.000  0.000
       0.000  1.000  0.000
       0.000  0.000  1.000
     occupation matrix ns (before diag.):
       0.167  0.000  0.000
       0.000  0.167  0.000
       0.000  0.000  0.167
     ------------------------ ATOM   60 ------------------------
     Tr[ns( 60)] =   1.00000
     eigenvalues:
       0.167  0.167  0.167
     eigenvectors (columns):
       1.000  0.000  0.000
       0.000  1.000  0.000
       0.000  0.000  1.000
     occupation matrix ns (before diag.):
       0.167  0.000  0.000
       0.000  0.167  0.000
       0.000  0.000  0.167
     ------------------------ ATOM   61 ------------------------
     Tr[ns( 61)] =   3.00000
     eigenvalues:
       0.500  0.500  0.500
     eigenvectors (columns):
       1.000  0.000  0.000
       0.000  1.000  0.000
       0.000  0.000  1.000
     occupation matrix ns (before diag.):
       0.500  0.000  0.000
       0.000  0.500  0.000
       0.000  0.000  0.500
     ------------------------ ATOM   62 ------------------------
     Tr[ns( 62)] =   3.00000
     eigenvalues:
       0.500  0.500  0.500
     eigenvectors (columns):
       1.000  0.000  0.000
       0.000  1.000  0.000
       0.000  0.000  1.000
     occupation matrix ns (before diag.):
       0.500  0.000  0.000
       0.000  0.500  0.000
       0.000  0.000  0.500
     ------------------------ ATOM   63 ------------------------
     Tr[ns( 63)] =   3.00000
     eigenvalues:
       0.500  0.500  0.500
     eigenvectors (columns):
       1.000  0.000  0.000
       0.000  1.000  0.000
       0.000  0.000  1.000
     occupation matrix ns (before diag.):
       0.500  0.000  0.000
       0.000  0.500  0.000
       0.000  0.000  0.500
     ------------------------ ATOM   64 ------------------------
     Tr[ns( 64)] =   3.00000
     eigenvalues:
       0.500  0.500  0.500
     eigenvectors (columns):
       1.000  0.000  0.000
       0.000  1.000  0.000
       0.000  0.000  1.000
     occupation matrix ns (before diag.):
       0.500  0.000  0.000
       0.000  0.500  0.000
       0.000  0.000  0.500
     ------------------------ ATOM   65 ------------------------
     Tr[ns( 65)] =   1.00000
     eigenvalues:
       0.167  0.167  0.167
     eigenvectors (columns):
       1.000  0.000  0.000
       0.000  1.000  0.000
       0.000  0.000  1.000
     occupation matrix ns (before diag.):
       0.167  0.000  0.000
       0.000  0.167  0.000
       0.000  0.000  0.167
     ------------------------ ATOM   66 ------------------------
     Tr[ns( 66)] =   1.00000
     eigenvalues:
       0.167  0.167  0.167
     eigenvectors (columns):
       1.000  0.000  0.000
       0.000  1.000  0.000
       0.000  0.000  1.000
     occupation matrix ns (before diag.):
       0.167  0.000  0.000
       0.000  0.167  0.000
       0.000  0.000  0.167
     ------------------------ ATOM   67 ------------------------
     Tr[ns( 67)] =   1.00000
     eigenvalues:
       0.167  0.167  0.167
     eigenvectors (columns):
       1.000  0.000  0.000
       0.000  1.000  0.000
       0.000  0.000  1.000
     occupation matrix ns (before diag.):
       0.167  0.000  0.000
       0.000  0.167  0.000
       0.000  0.000  0.167
     ------------------------ ATOM   68 ------------------------
     Tr[ns( 68)] =   1.00000
     eigenvalues:
       0.167  0.167  0.167
     eigenvectors (columns):
       1.000  0.000  0.000
       0.000  1.000  0.000
       0.000  0.000  1.000
     occupation matrix ns (before diag.):
       0.167  0.000  0.000
       0.000  0.167  0.000
       0.000  0.000  0.167
     ------------------------ ATOM   69 ------------------------
     Tr[ns( 69)] =   3.00000
     eigenvalues:
       0.500  0.500  0.500
     eigenvectors (columns):
       1.000  0.000  0.000
       0.000  1.000  0.000
       0.000  0.000  1.000
     occupation matrix ns (before diag.):
       0.500  0.000  0.000
       0.000  0.500  0.000
       0.000  0.000  0.500
     ------------------------ ATOM   70 ------------------------
     Tr[ns( 70)] =   3.00000
     eigenvalues:
       0.500  0.500  0.500
     eigenvectors (columns):
       1.000  0.000  0.000
       0.000  1.000  0.000
       0.000  0.000  1.000
     occupation matrix ns (before diag.):
       0.500  0.000  0.000
       0.000  0.500  0.000
       0.000  0.000  0.500
     ------------------------ ATOM   71 ------------------------
     Tr[ns( 71)] =   3.00000
     eigenvalues:
       0.500  0.500  0.500
     eigenvectors (columns):
       1.000  0.000  0.000
       0.000  1.000  0.000
       0.000  0.000  1.000
     occupation matrix ns (before diag.):
       0.500  0.000  0.000
       0.000  0.500  0.000
       0.000  0.000  0.500
     ------------------------ ATOM   72 ------------------------
     Tr[ns( 72)] =   3.00000
     eigenvalues:
       0.500  0.500  0.500
     eigenvectors (columns):
       1.000  0.000  0.000
       0.000  1.000  0.000
       0.000  0.000  1.000
     occupation matrix ns (before diag.):
       0.500  0.000  0.000
       0.000  0.500  0.000
       0.000  0.000  0.500
     ------------------------ ATOM   73 ------------------------
     Tr[ns( 73)] =   1.00000
     eigenvalues:
       0.167  0.167  0.167
     eigenvectors (columns):
       1.000  0.000  0.000
       0.000  1.000  0.000
       0.000  0.000  1.000
     occupation matrix ns (before diag.):
       0.167  0.000  0.000
       0.000  0.167  0.000
       0.000  0.000  0.167
     ------------------------ ATOM   74 ------------------------
     Tr[ns( 74)] =   1.00000
     eigenvalues:
       0.167  0.167  0.167
     eigenvectors (columns):
       1.000  0.000  0.000
       0.000  1.000  0.000
       0.000  0.000  1.000
     occupation matrix ns (before diag.):
       0.167  0.000  0.000
       0.000  0.167  0.000
       0.000  0.000  0.167
     ------------------------ ATOM   75 ------------------------
     Tr[ns( 75)] =   1.00000
     eigenvalues:
       0.167  0.167  0.167
     eigenvectors (columns):
       1.000  0.000  0.000
       0.000  1.000  0.000
       0.000  0.000  1.000
     occupation matrix ns (before diag.):
       0.167  0.000  0.000
       0.000  0.167  0.000
       0.000  0.000  0.167
     ------------------------ ATOM   76 ------------------------
     Tr[ns( 76)] =   1.00000
     eigenvalues:
       0.167  0.167  0.167
     eigenvectors (columns):
       1.000  0.000  0.000
       0.000  1.000  0.000
       0.000  0.000  1.000
     occupation matrix ns (before diag.):
       0.167  0.000  0.000
       0.000  0.167  0.000
       0.000  0.000  0.167
     ------------------------ ATOM   77 ------------------------
     Tr[ns( 77)] =   3.00000
     eigenvalues:
       0.500  0.500  0.500
     eigenvectors (columns):
       1.000  0.000  0.000
       0.000  1.000  0.000
       0.000  0.000  1.000
     occupation matrix ns (before diag.):
       0.500  0.000  0.000
       0.000  0.500  0.000
       0.000  0.000  0.500
     ------------------------ ATOM   78 ------------------------
     Tr[ns( 78)] =   3.00000
     eigenvalues:
       0.500  0.500  0.500
     eigenvectors (columns):
       1.000  0.000  0.000
       0.000  1.000  0.000
       0.000  0.000  1.000
     occupation matrix ns (before diag.):
       0.500  0.000  0.000
       0.000  0.500  0.000
       0.000  0.000  0.500
     ------------------------ ATOM   79 ------------------------
     Tr[ns( 79)] =   3.00000
     eigenvalues:
       0.500  0.500  0.500
     eigenvectors (columns):
       1.000  0.000  0.000
       0.000  1.000  0.000
       0.000  0.000  1.000
     occupation matrix ns (before diag.):
       0.500  0.000  0.000
       0.000  0.500  0.000
       0.000  0.000  0.500
     ------------------------ ATOM   80 ------------------------
     Tr[ns( 80)] =   3.00000
     eigenvalues:
       0.500  0.500  0.500
     eigenvectors (columns):
       1.000  0.000  0.000
       0.000  1.000  0.000
       0.000  0.000  1.000
     occupation matrix ns (before diag.):
       0.500  0.000  0.000
       0.000  0.500  0.000
       0.000  0.000  0.500
     ------------------------ ATOM   81 ------------------------
     Tr[ns( 81)] =   1.00000
     eigenvalues:
       0.167  0.167  0.167
     eigenvectors (columns):
       1.000  0.000  0.000
       0.000  1.000  0.000
       0.000  0.000  1.000
     occupation matrix ns (before diag.):
       0.167  0.000  0.000
       0.000  0.167  0.000
       0.000  0.000  0.167
     ------------------------ ATOM   82 ------------------------
     Tr[ns( 82)] =   1.00000
     eigenvalues:
       0.167  0.167  0.167
     eigenvectors (columns):
       1.000  0.000  0.000
       0.000  1.000  0.000
       0.000  0.000  1.000
     occupation matrix ns (before diag.):
       0.167  0.000  0.000
       0.000  0.167  0.000
       0.000  0.000  0.167
     ------------------------ ATOM   83 ------------------------
     Tr[ns( 83)] =   1.00000
     eigenvalues:
       0.167  0.167  0.167
     eigenvectors (columns):
       1.000  0.000  0.000
       0.000  1.000  0.000
       0.000  0.000  1.000
     occupation matrix ns (before diag.):
       0.167  0.000  0.000
       0.000  0.167  0.000
       0.000  0.000  0.167
     ------------------------ ATOM   84 ------------------------
     Tr[ns( 84)] =   1.00000
     eigenvalues:
       0.167  0.167  0.167
     eigenvectors (columns):
       1.000  0.000  0.000
       0.000  1.000  0.000
       0.000  0.000  1.000
     occupation matrix ns (before diag.):
       0.167  0.000  0.000
       0.000  0.167  0.000
       0.000  0.000  0.167
     ------------------------ ATOM   85 ------------------------
     Tr[ns( 85)] =   3.00000
     eigenvalues:
       0.500  0.500  0.500
     eigenvectors (columns):
       1.000  0.000  0.000
       0.000  1.000  0.000
       0.000  0.000  1.000
     occupation matrix ns (before diag.):
       0.500  0.000  0.000
       0.000  0.500  0.000
       0.000  0.000  0.500
     ------------------------ ATOM   86 ------------------------
     Tr[ns( 86)] =   3.00000
     eigenvalues:
       0.500  0.500  0.500
     eigenvectors (columns):
       1.000  0.000  0.000
       0.000  1.000  0.000
       0.000  0.000  1.000
     occupation matrix ns (before diag.):
       0.500  0.000  0.000
       0.000  0.500  0.000
       0.000  0.000  0.500
     ------------------------ ATOM   87 ------------------------
     Tr[ns( 87)] =   3.00000
     eigenvalues:
       0.500  0.500  0.500
     eigenvectors (columns):
       1.000  0.000  0.000
       0.000  1.000  0.000
       0.000  0.000  1.000
     occupation matrix ns (before diag.):
       0.500  0.000  0.000
       0.000  0.500  0.000
       0.000  0.000  0.500
     ------------------------ ATOM   88 ------------------------
     Tr[ns( 88)] =   3.00000
     eigenvalues:
       0.500  0.500  0.500
     eigenvectors (columns):
       1.000  0.000  0.000
       0.000  1.000  0.000
       0.000  0.000  1.000
     occupation matrix ns (before diag.):
       0.500  0.000  0.000
       0.000  0.500  0.000
       0.000  0.000  0.500
     ------------------------ ATOM   89 ------------------------
     Tr[ns( 89)] =   1.00000
     eigenvalues:
       0.167  0.167  0.167
     eigenvectors (columns):
       1.000  0.000  0.000
       0.000  1.000  0.000
       0.000  0.000  1.000
     occupation matrix ns (before diag.):
       0.167  0.000  0.000
       0.000  0.167  0.000
       0.000  0.000  0.167
     ------------------------ ATOM   90 ------------------------
     Tr[ns( 90)] =   1.00000
     eigenvalues:
       0.167  0.167  0.167
     eigenvectors (columns):
       1.000  0.000  0.000
       0.000  1.000  0.000
       0.000  0.000  1.000
     occupation matrix ns (before diag.):
       0.167  0.000  0.000
       0.000  0.167  0.000
       0.000  0.000  0.167
     ------------------------ ATOM   91 ------------------------
     Tr[ns( 91)] =   1.00000
     eigenvalues:
       0.167  0.167  0.167
     eigenvectors (columns):
       1.000  0.000  0.000
       0.000  1.000  0.000
       0.000  0.000  1.000
     occupation matrix ns (before diag.):
       0.167  0.000  0.000
       0.000  0.167  0.000
       0.000  0.000  0.167
     ------------------------ ATOM   92 ------------------------
     Tr[ns( 92)] =   1.00000
     eigenvalues:
       0.167  0.167  0.167
     eigenvectors (columns):
       1.000  0.000  0.000
       0.000  1.000  0.000
       0.000  0.000  1.000
     occupation matrix ns (before diag.):
       0.167  0.000  0.000
       0.000  0.167  0.000
       0.000  0.000  0.167
     ------------------------ ATOM   93 ------------------------
     Tr[ns( 93)] =   3.00000
     eigenvalues:
       0.500  0.500  0.500
     eigenvectors (columns):
       1.000  0.000  0.000
       0.000  1.000  0.000
       0.000  0.000  1.000
     occupation matrix ns (before diag.):
       0.500  0.000  0.000
       0.000  0.500  0.000
       0.000  0.000  0.500
     ------------------------ ATOM   94 ------------------------
     Tr[ns( 94)] =   3.00000
     eigenvalues:
       0.500  0.500  0.500
     eigenvectors (columns):
       1.000  0.000  0.000
       0.000  1.000  0.000
       0.000  0.000  1.000
     occupation matrix ns (before diag.):
       0.500  0.000  0.000
       0.000  0.500  0.000
       0.000  0.000  0.500
     ------------------------ ATOM   95 ------------------------
     Tr[ns( 95)] =   3.00000
     eigenvalues:
       0.500  0.500  0.500
     eigenvectors (columns):
       1.000  0.000  0.000
       0.000  1.000  0.000
       0.000  0.000  1.000
     occupation matrix ns (before diag.):
       0.500  0.000  0.000
       0.000  0.500  0.000
       0.000  0.000  0.500
     ------------------------ ATOM   96 ------------------------
     Tr[ns( 96)] =   3.00000
     eigenvalues:
       0.500  0.500  0.500
     eigenvectors (columns):
       1.000  0.000  0.000
       0.000  1.000  0.000
       0.000  0.000  1.000
     occupation matrix ns (before diag.):
       0.500  0.000  0.000
       0.000  0.500  0.000
       0.000  0.000  0.500
     ------------------------ ATOM   97 ------------------------
     Tr[ns( 97)] =   1.00000
     eigenvalues:
       0.167  0.167  0.167
     eigenvectors (columns):
       1.000  0.000  0.000
       0.000  1.000  0.000
       0.000  0.000  1.000
     occupation matrix ns (before diag.):
       0.167  0.000  0.000
       0.000  0.167  0.000
       0.000  0.000  0.167
     ------------------------ ATOM   98 ------------------------
     Tr[ns( 98)] =   1.00000
     eigenvalues:
       0.167  0.167  0.167
     eigenvectors (columns):
       1.000  0.000  0.000
       0.000  1.000  0.000
       0.000  0.000  1.000
     occupation matrix ns (before diag.):
       0.167  0.000  0.000
       0.000  0.167  0.000
       0.000  0.000  0.167
     ------------------------ ATOM   99 ------------------------
     Tr[ns( 99)] =   1.00000
     eigenvalues:
       0.167  0.167  0.167
     eigenvectors (columns):
       1.000  0.000  0.000
       0.000  1.000  0.000
       0.000  0.000  1.000
     occupation matrix ns (before diag.):
       0.167  0.000  0.000
       0.000  0.167  0.000
       0.000  0.000  0.167
     ------------------------ ATOM  100 ------------------------
     Tr[ns(100)] =   1.00000
     eigenvalues:
       0.167  0.167  0.167
     eigenvectors (columns):
       1.000  0.000  0.000
       0.000  1.000  0.000
       0.000  0.000  1.000
     occupation matrix ns (before diag.):
       0.167  0.000  0.000
       0.000  0.167  0.000
       0.000  0.000  0.167
     ------------------------ ATOM  101 ------------------------
     Tr[ns(101)] =   3.00000
     eigenvalues:
       0.500  0.500  0.500
     eigenvectors (columns):
       1.000  0.000  0.000
       0.000  1.000  0.000
       0.000  0.000  1.000
     occupation matrix ns (before diag.):
       0.500  0.000  0.000
       0.000  0.500  0.000
       0.000  0.000  0.500
     ------------------------ ATOM  102 ------------------------
     Tr[ns(102)] =   3.00000
     eigenvalues:
       0.500  0.500  0.500
     eigenvectors (columns):
       1.000  0.000  0.000
       0.000  1.000  0.000
       0.000  0.000  1.000
     occupation matrix ns (before diag.):
       0.500  0.000  0.000
       0.000  0.500  0.000
       0.000  0.000  0.500
     ------------------------ ATOM  103 ------------------------
     Tr[ns(103)] =   3.00000
     eigenvalues:
       0.500  0.500  0.500
     eigenvectors (columns):
       1.000  0.000  0.000
       0.000  1.000  0.000
       0.000  0.000  1.000
     occupation matrix ns (before diag.):
       0.500  0.000  0.000
       0.000  0.500  0.000
       0.000  0.000  0.500
     ------------------------ ATOM  104 ------------------------
     Tr[ns(104)] =   3.00000
     eigenvalues:
       0.500  0.500  0.500
     eigenvectors (columns):
       1.000  0.000  0.000
       0.000  1.000  0.000
       0.000  0.000  1.000
     occupation matrix ns (before diag.):
       0.500  0.000  0.000
       0.000  0.500  0.000
       0.000  0.000  0.500
     ------------------------ ATOM  105 ------------------------
     Tr[ns(105)] =   1.00000
     eigenvalues:
       0.167  0.167  0.167
     eigenvectors (columns):
       1.000  0.000  0.000
       0.000  1.000  0.000
       0.000  0.000  1.000
     occupation matrix ns (before diag.):
       0.167  0.000  0.000
       0.000  0.167  0.000
       0.000  0.000  0.167
     ------------------------ ATOM  106 ------------------------
     Tr[ns(106)] =   1.00000
     eigenvalues:
       0.167  0.167  0.167
     eigenvectors (columns):
       1.000  0.000  0.000
       0.000  1.000  0.000
       0.000  0.000  1.000
     occupation matrix ns (before diag.):
       0.167  0.000  0.000
       0.000  0.167  0.000
       0.000  0.000  0.167
     ------------------------ ATOM  107 ------------------------
     Tr[ns(107)] =   1.00000
     eigenvalues:
       0.167  0.167  0.167
     eigenvectors (columns):
       1.000  0.000  0.000
       0.000  1.000  0.000
       0.000  0.000  1.000
     occupation matrix ns (before diag.):
       0.167  0.000  0.000
       0.000  0.167  0.000
       0.000  0.000  0.167
     ------------------------ ATOM  108 ------------------------
     Tr[ns(108)] =   1.00000
     eigenvalues:
       0.167  0.167  0.167
     eigenvectors (columns):
       1.000  0.000  0.000
       0.000  1.000  0.000
       0.000  0.000  1.000
     occupation matrix ns (before diag.):
       0.167  0.000  0.000
       0.000  0.167  0.000
       0.000  0.000  0.167
     ------------------------ ATOM  109 ------------------------
     Tr[ns(109)] =   3.00000
     eigenvalues:
       0.500  0.500  0.500
     eigenvectors (columns):
       1.000  0.000  0.000
       0.000  1.000  0.000
       0.000  0.000  1.000
     occupation matrix ns (before diag.):
       0.500  0.000  0.000
       0.000  0.500  0.000
       0.000  0.000  0.500
     ------------------------ ATOM  110 ------------------------
     Tr[ns(110)] =   3.00000
     eigenvalues:
       0.500  0.500  0.500
     eigenvectors (columns):
       1.000  0.000  0.000
       0.000  1.000  0.000
       0.000  0.000  1.000
     occupation matrix ns (before diag.):
       0.500  0.000  0.000
       0.000  0.500  0.000
       0.000  0.000  0.500
     ------------------------ ATOM  111 ------------------------
     Tr[ns(111)] =   3.00000
     eigenvalues:
       0.500  0.500  0.500
     eigenvectors (columns):
       1.000  0.000  0.000
       0.000  1.000  0.000
       0.000  0.000  1.000
     occupation matrix ns (before diag.):
       0.500  0.000  0.000
       0.000  0.500  0.000
       0.000  0.000  0.500
     ------------------------ ATOM  112 ------------------------
     Tr[ns(112)] =   3.00000
     eigenvalues:
       0.500  0.500  0.500
     eigenvectors (columns):
       1.000  0.000  0.000
       0.000  1.000  0.000
       0.000  0.000  1.000
     occupation matrix ns (before diag.):
       0.500  0.000  0.000
       0.000  0.500  0.000
       0.000  0.000  0.500
     ------------------------ ATOM  113 ------------------------
     Tr[ns(113)] =   1.00000
     eigenvalues:
       0.167  0.167  0.167
     eigenvectors (columns):
       1.000  0.000  0.000
       0.000  1.000  0.000
       0.000  0.000  1.000
     occupation matrix ns (before diag.):
       0.167  0.000  0.000
       0.000  0.167  0.000
       0.000  0.000  0.167
     ------------------------ ATOM  114 ------------------------
     Tr[ns(114)] =   1.00000
     eigenvalues:
       0.167  0.167  0.167
     eigenvectors (columns):
       1.000  0.000  0.000
       0.000  1.000  0.000
       0.000  0.000  1.000
     occupation matrix ns (before diag.):
       0.167  0.000  0.000
       0.000  0.167  0.000
       0.000  0.000  0.167
     ------------------------ ATOM  115 ------------------------
     Tr[ns(115)] =   1.00000
     eigenvalues:
       0.167  0.167  0.167
     eigenvectors (columns):
       1.000  0.000  0.000
       0.000  1.000  0.000
       0.000  0.000  1.000
     occupation matrix ns (before diag.):
       0.167  0.000  0.000
       0.000  0.167  0.000
       0.000  0.000  0.167
     ------------------------ ATOM  116 ------------------------
     Tr[ns(116)] =   1.00000
     eigenvalues:
       0.167  0.167  0.167
     eigenvectors (columns):
       1.000  0.000  0.000
       0.000  1.000  0.000
       0.000  0.000  1.000
     occupation matrix ns (before diag.):
       0.167  0.000  0.000
       0.000  0.167  0.000
       0.000  0.000  0.167
     ------------------------ ATOM  117 ------------------------
     Tr[ns(117)] =   3.00000
     eigenvalues:
       0.500  0.500  0.500
     eigenvectors (columns):
       1.000  0.000  0.000
       0.000  1.000  0.000
       0.000  0.000  1.000
     occupation matrix ns (before diag.):
       0.500  0.000  0.000
       0.000  0.500  0.000
       0.000  0.000  0.500
     ------------------------ ATOM  118 ------------------------
     Tr[ns(118)] =   3.00000
     eigenvalues:
       0.500  0.500  0.500
     eigenvectors (columns):
       1.000  0.000  0.000
       0.000  1.000  0.000
       0.000  0.000  1.000
     occupation matrix ns (before diag.):
       0.500  0.000  0.000
       0.000  0.500  0.000
       0.000  0.000  0.500
     ------------------------ ATOM  119 ------------------------
     Tr[ns(119)] =   3.00000
     eigenvalues:
       0.500  0.500  0.500
     eigenvectors (columns):
       1.000  0.000  0.000
       0.000  1.000  0.000
       0.000  0.000  1.000
     occupation matrix ns (before diag.):
       0.500  0.000  0.000
       0.000  0.500  0.000
       0.000  0.000  0.500
     ------------------------ ATOM  120 ------------------------
     Tr[ns(120)] =   3.00000
     eigenvalues:
       0.500  0.500  0.500
     eigenvectors (columns):
       1.000  0.000  0.000
       0.000  1.000  0.000
       0.000  0.000  1.000
     occupation matrix ns (before diag.):
       0.500  0.000  0.000
       0.000  0.500  0.000
       0.000  0.000  0.500
     ------------------------ ATOM  121 ------------------------
     Tr[ns(121)] =   1.00000
     eigenvalues:
       0.167  0.167  0.167
     eigenvectors (columns):
       1.000  0.000  0.000
       0.000  1.000  0.000
       0.000  0.000  1.000
     occupation matrix ns (before diag.):
       0.167  0.000  0.000
       0.000  0.167  0.000
       0.000  0.000  0.167
     ------------------------ ATOM  122 ------------------------
     Tr[ns(122)] =   1.00000
     eigenvalues:
       0.167  0.167  0.167
     eigenvectors (columns):
       1.000  0.000  0.000
       0.000  1.000  0.000
       0.000  0.000  1.000
     occupation matrix ns (before diag.):
       0.167  0.000  0.000
       0.000  0.167  0.000
       0.000  0.000  0.167
     ------------------------ ATOM  123 ------------------------
     Tr[ns(123)] =   1.00000
     eigenvalues:
       0.167  0.167  0.167
     eigenvectors (columns):
       1.000  0.000  0.000
       0.000  1.000  0.000
       0.000  0.000  1.000
     occupation matrix ns (before diag.):
       0.167  0.000  0.000
       0.000  0.167  0.000
       0.000  0.000  0.167
     ------------------------ ATOM  124 ------------------------
     Tr[ns(124)] =   1.00000
     eigenvalues:
       0.167  0.167  0.167
     eigenvectors (columns):
       1.000  0.000  0.000
       0.000  1.000  0.000
       0.000  0.000  1.000
     occupation matrix ns (before diag.):
       0.167  0.000  0.000
       0.000  0.167  0.000
       0.000  0.000  0.167
     ------------------------ ATOM  125 ------------------------
     Tr[ns(125)] =   3.00000
     eigenvalues:
       0.500  0.500  0.500
     eigenvectors (columns):
       1.000  0.000  0.000
       0.000  1.000  0.000
       0.000  0.000  1.000
     occupation matrix ns (before diag.):
       0.500  0.000  0.000
       0.000  0.500  0.000
       0.000  0.000  0.500
     ------------------------ ATOM  126 ------------------------
     Tr[ns(126)] =   3.00000
     eigenvalues:
       0.500  0.500  0.500
     eigenvectors (columns):
       1.000  0.000  0.000
       0.000  1.000  0.000
       0.000  0.000  1.000
     occupation matrix ns (before diag.):
       0.500  0.000  0.000
       0.000  0.500  0.000
       0.000  0.000  0.500
     ------------------------ ATOM  127 ------------------------
     Tr[ns(127)] =   3.00000
     eigenvalues:
       0.500  0.500  0.500
     eigenvectors (columns):
       1.000  0.000  0.000
       0.000  1.000  0.000
       0.000  0.000  1.000
     occupation matrix ns (before diag.):
       0.500  0.000  0.000
       0.000  0.500  0.000
       0.000  0.000  0.500
     ------------------------ ATOM  128 ------------------------
     Tr[ns(128)] =   3.00000
     eigenvalues:
       0.500  0.500  0.500
     eigenvectors (columns):
       1.000  0.000  0.000
       0.000  1.000  0.000
       0.000  0.000  1.000
     occupation matrix ns (before diag.):
       0.500  0.000  0.000
       0.000  0.500  0.000
       0.000  0.000  0.500
     ------------------------ ATOM  129 ------------------------
     Tr[ns(129)] =   1.00000
     eigenvalues:
       0.167  0.167  0.167
     eigenvectors (columns):
       1.000  0.000  0.000
       0.000  1.000  0.000
       0.000  0.000  1.000
     occupation matrix ns (before diag.):
       0.167  0.000  0.000
       0.000  0.167  0.000
       0.000  0.000  0.167
     ------------------------ ATOM  130 ------------------------
     Tr[ns(130)] =   1.00000
     eigenvalues:
       0.167  0.167  0.167
     eigenvectors (columns):
       1.000  0.000  0.000
       0.000  1.000  0.000
       0.000  0.000  1.000
     occupation matrix ns (before diag.):
       0.167  0.000  0.000
       0.000  0.167  0.000
       0.000  0.000  0.167
     ------------------------ ATOM  131 ------------------------
     Tr[ns(131)] =   1.00000
     eigenvalues:
       0.167  0.167  0.167
     eigenvectors (columns):
       1.000  0.000  0.000
       0.000  1.000  0.000
       0.000  0.000  1.000
     occupation matrix ns (before diag.):
       0.167  0.000  0.000
       0.000  0.167  0.000
       0.000  0.000  0.167
     ------------------------ ATOM  132 ------------------------
     Tr[ns(132)] =   1.00000
     eigenvalues:
       0.167  0.167  0.167
     eigenvectors (columns):
       1.000  0.000  0.000
       0.000  1.000  0.000
       0.000  0.000  1.000
     occupation matrix ns (before diag.):
       0.167  0.000  0.000
       0.000  0.167  0.000
       0.000  0.000  0.167
     ------------------------ ATOM  133 ------------------------
     Tr[ns(133)] =   3.00000
     eigenvalues:
       0.500  0.500  0.500
     eigenvectors (columns):
       1.000  0.000  0.000
       0.000  1.000  0.000
       0.000  0.000  1.000
     occupation matrix ns (before diag.):
       0.500  0.000  0.000
       0.000  0.500  0.000
       0.000  0.000  0.500
     ------------------------ ATOM  134 ------------------------
     Tr[ns(134)] =   3.00000
     eigenvalues:
       0.500  0.500  0.500
     eigenvectors (columns):
       1.000  0.000  0.000
       0.000  1.000  0.000
       0.000  0.000  1.000
     occupation matrix ns (before diag.):
       0.500  0.000  0.000
       0.000  0.500  0.000
       0.000  0.000  0.500
     ------------------------ ATOM  135 ------------------------
     Tr[ns(135)] =   3.00000
     eigenvalues:
       0.500  0.500  0.500
     eigenvectors (columns):
       1.000  0.000  0.000
       0.000  1.000  0.000
       0.000  0.000  1.000
     occupation matrix ns (before diag.):
       0.500  0.000  0.000
       0.000  0.500  0.000
       0.000  0.000  0.500
     ------------------------ ATOM  136 ------------------------
     Tr[ns(136)] =   3.00000
     eigenvalues:
       0.500  0.500  0.500
     eigenvectors (columns):
       1.000  0.000  0.000
       0.000  1.000  0.000
       0.000  0.000  1.000
     occupation matrix ns (before diag.):
       0.500  0.000  0.000
       0.000  0.500  0.000
       0.000  0.000  0.500
     ------------------------ ATOM  137 ------------------------
     Tr[ns(137)] =   1.00000
     eigenvalues:
       0.167  0.167  0.167
     eigenvectors (columns):
       1.000  0.000  0.000
       0.000  1.000  0.000
       0.000  0.000  1.000
     occupation matrix ns (before diag.):
       0.167  0.000  0.000
       0.000  0.167  0.000
       0.000  0.000  0.167
     ------------------------ ATOM  138 ------------------------
     Tr[ns(138)] =   1.00000
     eigenvalues:
       0.167  0.167  0.167
     eigenvectors (columns):
       1.000  0.000  0.000
       0.000  1.000  0.000
       0.000  0.000  1.000
     occupation matrix ns (before diag.):
       0.167  0.000  0.000
       0.000  0.167  0.000
       0.000  0.000  0.167
     ------------------------ ATOM  139 ------------------------
     Tr[ns(139)] =   1.00000
     eigenvalues:
       0.167  0.167  0.167
     eigenvectors (columns):
       1.000  0.000  0.000
       0.000  1.000  0.000
       0.000  0.000  1.000
     occupation matrix ns (before diag.):
       0.167  0.000  0.000
       0.000  0.167  0.000
       0.000  0.000  0.167
     ------------------------ ATOM  140 ------------------------
     Tr[ns(140)] =   1.00000
     eigenvalues:
       0.167  0.167  0.167
     eigenvectors (columns):
       1.000  0.000  0.000
       0.000  1.000  0.000
       0.000  0.000  1.000
     occupation matrix ns (before diag.):
       0.167  0.000  0.000
       0.000  0.167  0.000
       0.000  0.000  0.167
     ------------------------ ATOM  141 ------------------------
     Tr[ns(141)] =   3.00000
     eigenvalues:
       0.500  0.500  0.500
     eigenvectors (columns):
       1.000  0.000  0.000
       0.000  1.000  0.000
       0.000  0.000  1.000
     occupation matrix ns (before diag.):
       0.500  0.000  0.000
       0.000  0.500  0.000
       0.000  0.000  0.500
     ------------------------ ATOM  142 ------------------------
     Tr[ns(142)] =   3.00000
     eigenvalues:
       0.500  0.500  0.500
     eigenvectors (columns):
       1.000  0.000  0.000
       0.000  1.000  0.000
       0.000  0.000  1.000
     occupation matrix ns (before diag.):
       0.500  0.000  0.000
       0.000  0.500  0.000
       0.000  0.000  0.500
     ------------------------ ATOM  143 ------------------------
     Tr[ns(143)] =   3.00000
     eigenvalues:
       0.500  0.500  0.500
     eigenvectors (columns):
       1.000  0.000  0.000
       0.000  1.000  0.000
       0.000  0.000  1.000
     occupation matrix ns (before diag.):
       0.500  0.000  0.000
       0.000  0.500  0.000
       0.000  0.000  0.500
     ------------------------ ATOM  144 ------------------------
     Tr[ns(144)] =   3.00000
     eigenvalues:
       0.500  0.500  0.500
     eigenvectors (columns):
       1.000  0.000  0.000
       0.000  1.000  0.000
       0.000  0.000  1.000
     occupation matrix ns (before diag.):
       0.500  0.000  0.000
       0.000  0.500  0.000
       0.000  0.000  0.500
     ------------------------ ATOM  145 ------------------------
     Tr[ns(145)] =   1.00000
     eigenvalues:
       0.167  0.167  0.167
     eigenvectors (columns):
       1.000  0.000  0.000
       0.000  1.000  0.000
       0.000  0.000  1.000
     occupation matrix ns (before diag.):
       0.167  0.000  0.000
       0.000  0.167  0.000
       0.000  0.000  0.167
     ------------------------ ATOM  146 ------------------------
     Tr[ns(146)] =   1.00000
     eigenvalues:
       0.167  0.167  0.167
     eigenvectors (columns):
       1.000  0.000  0.000
       0.000  1.000  0.000
       0.000  0.000  1.000
     occupation matrix ns (before diag.):
       0.167  0.000  0.000
       0.000  0.167  0.000
       0.000  0.000  0.167
     ------------------------ ATOM  147 ------------------------
     Tr[ns(147)] =   1.00000
     eigenvalues:
       0.167  0.167  0.167
     eigenvectors (columns):
       1.000  0.000  0.000
       0.000  1.000  0.000
       0.000  0.000  1.000
     occupation matrix ns (before diag.):
       0.167  0.000  0.000
       0.000  0.167  0.000
       0.000  0.000  0.167
     ------------------------ ATOM  148 ------------------------
     Tr[ns(148)] =   1.00000
     eigenvalues:
       0.167  0.167  0.167
     eigenvectors (columns):
       1.000  0.000  0.000
       0.000  1.000  0.000
       0.000  0.000  1.000
     occupation matrix ns (before diag.):
       0.167  0.000  0.000
       0.000  0.167  0.000
       0.000  0.000  0.167
     ------------------------ ATOM  149 ------------------------
     Tr[ns(149)] =   3.00000
     eigenvalues:
       0.500  0.500  0.500
     eigenvectors (columns):
       1.000  0.000  0.000
       0.000  1.000  0.000
       0.000  0.000  1.000
     occupation matrix ns (before diag.):
       0.500  0.000  0.000
       0.000  0.500  0.000
       0.000  0.000  0.500
     ------------------------ ATOM  150 ------------------------
     Tr[ns(150)] =   3.00000
     eigenvalues:
       0.500  0.500  0.500
     eigenvectors (columns):
       1.000  0.000  0.000
       0.000  1.000  0.000
       0.000  0.000  1.000
     occupation matrix ns (before diag.):
       0.500  0.000  0.000
       0.000  0.500  0.000
       0.000  0.000  0.500
     ------------------------ ATOM  151 ------------------------
     Tr[ns(151)] =   3.00000
     eigenvalues:
       0.500  0.500  0.500
     eigenvectors (columns):
       1.000  0.000  0.000
       0.000  1.000  0.000
       0.000  0.000  1.000
     occupation matrix ns (before diag.):
       0.500  0.000  0.000
       0.000  0.500  0.000
       0.000  0.000  0.500
     ------------------------ ATOM  152 ------------------------
[...]
   -25.8906 -25.8900 -25.8899 -25.8899 -25.8898 -25.8898 -25.8894 -25.8894
   -25.8893 -25.8892 -25.8882 -25.8881 -25.8879 -25.8878 -25.8877 -25.8876
   -25.8876 -25.8869 -25.8869 -25.8868 -25.8868 -25.8862 -25.8857 -25.8855
   -25.8851 -25.8850 -25.8848 -25.8846 -25.8844 -25.8843 -25.8839 -25.8839
   -25.8837 -25.8837 -25.8836 -25.8831 -25.8825 -25.8824 -25.8822 -25.8805
   -25.8800 -25.8797 -25.8797 -25.8796 -25.8796 -25.8794 -25.8787 -25.8785
   -25.8785 -25.8783 -25.8780 -25.8773 -25.8773 -25.8769 -25.8764 -25.8752
   -25.8749 -25.8724 -25.8716 -25.8715 -25.8710 -25.8701 -25.8701 -25.8687
   -25.8672 -25.8628 -25.8615 -25.8601 -25.8540 -19.3781 -19.3713 -19.3633
   -19.3573 -19.3550 -19.3545 -19.3543 -19.3537 -19.3519 -19.3502 -19.3488
   -19.3467 -19.3467 -19.3465 -19.3459 -19.3457 -19.3442 -19.3442 -19.3431
   -19.3431 -19.3423 -19.3414 -19.3408 -19.3401 -19.3398 -19.3386 -19.3383
   -19.3381 -19.3376 -19.3372 -19.3370 -19.3369 -19.3368 -19.3363 -19.3358
   -19.3347 -19.3346 -19.3344 -19.3337 -19.3337 -19.3331 -19.3329 -19.3326
   -19.3321 -19.3318 -19.3316 -19.3315 -19.3313 -19.3312 -19.3311 -19.3301
   -19.3300 -19.3293 -19.3288 -19.3283 -19.3282 -19.3280 -19.3277 -19.3274
   -19.3273 -19.3269 -19.3263 -19.3259 -19.3258 -19.3257 -19.3257 -19.3254
   -19.3254 -19.3247 -19.3247 -19.3243 -19.3242 -19.3234 -19.3214 -19.3207
   -19.3207 -19.3199 -19.3198 -19.3197 -19.3195 -19.3192 -19.3184 -19.3180
   -19.3178 -19.3175 -19.3174 -19.3170 -19.3163 -19.3153 -19.3152 -19.3147
   -19.3139 -19.3137 -19.3131 -19.3130 -19.3128 -19.3125 -19.3119 -19.3116
   -19.3116 -19.3111 -19.3109 -19.3100 -19.3099 -19.3091 -19.3087 -19.3085
   -19.3067 -19.3066 -19.3065 -19.3062 -19.3049 -19.3048 -19.3044 -19.3041
   -19.3032 -19.3030 -19.3029 -19.3025 -19.3016 -19.3012 -19.3010 -19.3006
   -19.2970 -19.2967 -19.2957 -19.2954 -19.2937 -19.2919 -19.2916 -19.2913
   -19.2894 -19.2890 -19.2858 -19.2787  -7.2353  -7.2271  -7.2266  -7.2209
    -7.2176  -7.2173  -7.2125  -7.2121  -7.2090  -7.2068  -7.2019  -7.2014
    -7.1996  -7.1994  -7.1990  -7.1987  -7.1976  -7.1966  -7.1961  -7.1961
    -7.1944  -7.1938  -7.1926  -7.1920  -7.1902  -7.1887  -7.1857  -7.1851
    -7.1837  -7.1832  -7.1814  -7.1808  -7.1787  -7.1763  -7.1758  -7.1757
    -7.1746  -7.1742  -7.1729  -7.1721  -7.1717  -7.1716  -7.1709  -7.1696
    -7.1692  -7.1685  -7.1678  -7.1658  -7.1654  -7.1647  -7.1644  -7.1640
    -7.1623  -7.1621  -7.1618  -7.1604  -7.1595  -7.1588  -7.1587  -7.1584
    -7.1578  -7.1574  -7.1567  -7.1566  -7.1561  -7.1553  -7.1551  -7.1545
    -7.1543  -7.1532  -7.1516  -7.1514  -7.1508  -7.1502  -7.1500  -7.1498
    -7.1489  -7.1481  -7.1477  -7.1470  -7.1467  -7.1463  -7.1460  -7.1456
    -7.1454  -7.1451  -7.1441  -7.1432  -7.1427  -7.1420  -7.1415  -7.1410
    -7.1398  -7.1396  -7.1392  -7.1392  -7.1389  -7.1385  -7.1381  -7.1378
    -7.1373  -7.1371  -7.1358  -7.1353  -7.1352  -7.1342  -7.1337  -7.1336
    -7.1334  -7.1330  -7.1321  -7.1319  -7.1310  -7.1308  -7.1303  -7.1299
    -7.1293  -7.1282  -7.1281  -7.1277  -7.1269  -7.1265  -7.1262  -7.1256
    -7.1251  -7.1245  -7.1242  -7.1240  -7.1229  -7.1226  -7.1222  -7.1216
    -7.1208  -7.1202  -7.1199  -7.1196  -7.1192  -7.1186  -7.1182  -7.1180
    -7.1175  -7.1171  -7.1166  -7.1162  -7.1155  -7.1151  -7.1148  -7.1146
    -7.1141  -7.1139  -7.1136  -7.1127  -7.1119  -7.1113  -7.1111  -7.1105
    -7.1102  -7.1101  -7.1098  -7.1092  -7.1091  -7.1083  -7.1079  -7.1077
    -7.1074  -7.1069  -7.1064  -7.1060  -7.1057  -7.1053  -7.1049  -7.1046
    -7.1040  -7.1039  -7.1037  -7.1032  -7.1031  -7.1028  -7.1023  -7.1018
    -7.1017  -7.1011  -7.1006  -7.1003  -7.1001  -7.0995  -7.0989  -7.0988
    -7.0982  -7.0979  -7.0975  -7.0968  -7.0965  -7.0959  -7.0953  -7.0951
    -7.0950  -7.0942  -7.0939  -7.0933  -7.0928  -7.0926  -7.0920  -7.0916
    -7.0909  -7.0903  -7.0899  -7.0894  -7.0886  -7.0884  -7.0882  -7.0880
    -7.0877  -7.0874  -7.0873  -7.0867  -7.0862  -7.0857  -7.0852  -7.0850
    -7.0847  -7.0846  -7.0837  -7.0835  -7.0834  -7.0830  -7.0827  -7.0823
    -7.0818  -7.0815  -7.0809  -7.0808  -7.0804  -7.0795  -7.0794  -7.0791
    -7.0789  -7.0780  -7.0778  -7.0773  -7.0770  -7.0765  -7.0760  -7.0756
    -7.0756  -7.0753  -7.0746  -7.0746  -7.0742  -7.0738  -7.0736  -7.0731
    -7.0728  -7.0727  -7.0724  -7.0717  -7.0714  -7.0710  -7.0708  -7.0707
    -7.0700  -7.0696  -7.0694  -7.0691  -7.0689  -7.0685  -7.0681  -7.0673
    -7.0669  -7.0666  -7.0665  -7.0658  -7.0656  -7.0655  -7.0653  -7.0644
    -7.0636  -7.0634  -7.0631  -7.0628  -7.0621  -7.0616  -7.0613  -7.0610
    -7.0606  -7.0603  -7.0601  -7.0597  -7.0593  -7.0591  -7.0587  -7.0584
    -7.0580  -7.0577  -7.0574  -7.0573  -7.0570  -7.0567  -7.0565  -7.0562
    -7.0555  -7.0550  -7.0546  -7.0542  -7.0536  -7.0534  -7.0531  -7.0529
    -7.0525  -7.0524  -7.0522  -7.0520  -7.0516  -7.0512  -7.0507  -7.0505
    -7.0502  -7.0498  -7.0494  -7.0489  -7.0487  -7.0482  -7.0482  -7.0477
    -7.0472  -7.0468  -7.0465  -7.0461  -7.0457  -7.0455  -7.0454  -7.0446
    -7.0435  -7.0433  -7.0429  -7.0422  -7.0421  -7.0415  -7.0412  -7.0412
    -7.0406  -7.0403  -7.0401  -7.0396  -7.0390  -7.0386  -7.0385  -7.0379
    -7.0378  -7.0372  -7.0371  -7.0369  -7.0363  -7.0362  -7.0358  -7.0354
    -7.0350  -7.0349  -7.0348  -7.0344  -7.0341  -7.0336  -7.0334  -7.0330
    -7.0324  -7.0321  -7.0320  -7.0312  -7.0308  -7.0305  -7.0303  -7.0299
    -7.0293  -7.0292  -7.0287  -7.0285  -7.0279  -7.0277  -7.0272  -7.0268
    -7.0265  -7.0263  -7.0260  -7.0256  -7.0251  -7.0242  -7.0238  -7.0236
    -7.0232  -7.0226  -7.0225  -7.0220  -7.0215  -7.0212  -7.0211  -7.0205
    -7.0201  -7.0198  -7.0196  -7.0189  -7.0183  -7.0181  -7.0179  -7.0171
    -7.0171  -7.0169  -7.0165  -7.0161  -7.0155  -7.0152  -7.0149  -7.0144
    -7.0141  -7.0140  -7.0136  -7.0128  -7.0128  -7.0126  -7.0122  -7.0120
    -7.0118  -7.0112  -7.0111  -7.0107  -7.0105  -7.0101  -7.0098  -7.0091
    -7.0091  -7.0088  -7.0084  -7.0080  -7.0074  -7.0069  -7.0065  -7.0063
    -7.0056  -7.0053  -7.0049  -7.0045  -7.0039  -7.0035  -7.0034  -7.0032
    -7.0027  -7.0018  -7.0006  -7.0003  -7.0000  -6.9992  -6.9987  -6.9985
    -6.9984  -6.9977  -6.9974  -6.9971  -6.9954  -6.9952  -6.9942  -6.9930
    -6.9926  -6.9919  -6.9913  -6.9910  -6.9906  -6.9901  -6.9895  -6.9887
    -6.9885  -6.9873  -6.9869  -6.9864  -6.9856  -6.9850  -6.9841  -6.9836
    -6.9836  -6.9826  -6.9814  -6.9804  -6.9800  -6.9793  -6.9788  -6.9786
    -6.9778  -6.9770  -6.9764  -6.9755  -6.9753  -6.9752  -6.9748  -6.9745
    -6.9738  -6.9731  -6.9730  -6.9726  -6.9724  -6.9721  -6.9717  -6.9712
    -6.9710  -6.9703  -6.9697  -6.9681  -6.9678  -6.9672  -6.9658  -6.9655
    -6.9651  -6.9640  -6.9639  -6.9637  -6.9623  -6.9615  -6.9611  -6.9608
    -6.9603  -6.9576  -6.9564  -6.9549  -6.9542  -6.9491  -6.9466  -6.9453
    -6.9438  -6.9432  -6.9406  -6.9345  -6.9334  -6.9323  -6.9322  -6.9308
    -6.9297  -6.9260  -6.9241  -6.9207  -6.9113  -6.9080  -6.8643  -6.8619
    -3.6012  -3.5800  -3.5567  -3.4451  -3.3343  -3.2992  -3.2967  -3.2740
    -3.2653  -3.2300  -3.2041  -3.1520  -3.0655  -3.0221  -3.0003  -2.9649
    -2.9544  -2.9168  -2.8642  -2.8368  -2.8088  -2.8042  -2.7854  -2.7504
    -2.7324  -2.7178  -2.7062  -2.6956  -2.6930  -2.6726  -2.6535  -2.6438
    -2.6027  -2.5550  -2.5272  -2.5232  -2.4675  -2.4255  -2.4166  -2.4076
    -2.3912  -2.3805  -2.3643  -2.3571  -2.3306  -2.3190  -2.2957  -2.2843
    -2.2451  -2.2343  -2.2180  -2.2049  -2.1734  -2.1657  -2.1465  -2.0762
    -1.9631  -1.9489  -1.9431  -1.9173  -1.8954  -1.8854  -1.8743  -1.8571
    -1.8351  -1.8186  -1.8068  -1.7971  -1.7695  -1.7411  -1.7218  -1.7000
    -1.6761  -1.6438  -1.6294  -1.6219  -1.6022  -1.5674  -1.5444  -1.5139
    -1.4884  -1.4800  -1.4717  -1.4134  -1.3979  -1.3679  -1.3661  -1.3318
    -1.3299  -1.3030  -1.2864  -1.2449  -1.2393  -1.2034  -1.1927  -1.1628
    -1.0774  -1.0671  -1.0324  -1.0205  -0.9651  -0.9373  -0.9158  -0.8961
    -0.8633  -0.8299  -0.7940  -0.7223  -0.4537  -0.4379  -0.3898  -0.2433
     0.0602   0.0790   0.1029   0.1238   0.1281   0.1378   0.1467   0.1620
     0.1682   0.1902   0.1932   0.1962   0.2046   0.2141   0.2247   0.2258
     0.2341   0.2502   0.2592   0.2615   0.2749   0.2798   0.2934   0.3052
     0.3247   0.3364   0.3393   0.3570   0.3762   0.3841   0.3913   0.4067
     0.4209   0.4353   0.4661   0.4769   0.5113   0.5221   0.5515   0.5643
     0.5794   0.5901   0.6372   0.6635   0.7003   0.7187   0.7584   0.7820
     0.7856   0.8127   0.8618   0.9108   0.9417   0.9480   0.9788   1.1099
     1.3166   1.3548   1.3676   1.4276   1.4389   1.4580   1.4776   1.5065
     1.5248   1.5789   1.6117   1.6203   1.6660   1.7035   1.7218   1.7645
     1.7902   1.8334   1.8400   1.8442   1.9010   1.9474   1.9610   2.0032
     2.0279   2.0603   2.0837   2.0983   2.8000   2.8570   2.8936   2.9059
     2.9397   2.9692   2.9821   3.0003   3.0201   3.0366   3.0463   3.0581
     3.1179   3.1222   3.1268   3.1503   3.3151   3.3284   3.3399   3.3542
     3.3567   3.3618   3.3883   3.3934   3.4096   3.4137   3.4194   3.4332
     3.4669   3.4909   3.5044   3.5191   3.5344   3.5551   3.5647   3.5831
     3.5929   3.6133   3.6265   3.6464   3.6583   3.6741   3.6922   3.7042
     3.7255   3.7344   3.7512   3.7595   3.7763   3.7924   3.8023   3.8226
     3.8340   3.8422   3.8605   3.8710   3.8806   3.8874   3.9093   3.9115
     3.9376   3.9580   3.9731   3.9909   4.1808   4.2092   4.2319   4.2662
     4.2972   4.3358   4.3460   4.4015   4.4187   4.4351   4.4554   4.4678
     4.4726   4.4850   4.4948   4.5199   4.5285   4.5340   4.5379   4.5561
     4.5646   4.5885   4.6062   4.6137   4.6318   4.6353   4.6523   4.6565
     4.6848   4.7096   4.7156   4.7361   4.7548   4.7792   4.7853   4.7863
     4.8099   4.8218   4.8382   4.8599   4.8665   4.8799   4.8912   4.9027
     4.9100   4.9198   4.9450   4.9680   4.9757   4.9943   5.0041   5.0104
     5.0228   5.0364   5.0418   5.0523   5.0683   5.0859   5.0937   5.1174
     5.1194   5.1401   5.1515   5.1663   5.1845   5.1953   5.2114   5.2259
     5.2482   5.2565   5.2743   5.2866   5.2939   5.3062   5.3173   5.3467
     5.3531   5.3690   5.3847   5.3923   5.3989   5.4170   5.4265   5.4374
     5.4552   5.4670   5.4977   5.4993   5.5166   5.5399   5.5464   5.5487
     5.5755   5.5852   5.5930   5.6161   5.6360   5.6502   5.6627   5.6811
     5.6989   5.7283   5.7404   5.7728   5.7779   5.7816   5.8168   5.8340
     5.8614   5.8799   5.8883   5.8979   5.9271   5.9390   5.9668   5.9757
     6.0004   6.0341   6.0454   6.0626   6.0750   6.1150   6.1254   6.1459
     6.1614   6.1868   6.1968   6.2159   6.2267   6.2516   6.2715   6.2849
     6.2921   6.3135   6.3308   6.3428   6.3539   6.3935   6.3959   6.4167
     6.4414   6.4516   6.4559   6.4831   6.5222   6.5341   6.5713   6.5827
     6.6052   6.6244   6.6393   6.6724   6.6814   6.7099   6.7436   6.7544
     6.7797   6.7908   6.8044   6.8277   6.8609   6.8814   6.9091   6.9417
     6.9742   7.0072   7.0638   7.1475   7.3599   7.4517   7.5332   7.5601
     9.6268   9.6678   9.6695   9.7002   9.7200   9.7520   9.7668   9.7778
     9.8638   9.8708   9.8962   9.9291   9.9519   9.9590   9.9691   9.9841
     9.9968  10.0197  10.0284  10.0426  10.0642  10.0691  10.0854  10.1020
    10.1103  10.1309  10.1391  10.1565  10.1674  10.1878  10.2082  10.2204
    10.2682  10.2813  10.3073  10.3122  10.3224  10.3393  10.3653  10.3855
    10.3918  10.4147  10.4181  10.4277  10.4318  10.4448  10.4620  10.4663
    10.4845  10.4884  10.5112  10.5122  10.5172  10.5281  10.5482  10.5516
    10.5633  10.5652  10.5705  10.5943  10.6077  10.6144  10.6178  10.6394
    10.6670  10.6819  10.7042  10.7156  10.7183  10.7253  10.7340  10.7500
    10.7625  10.7644  10.7654  10.7820  10.7888  10.7997  10.8078  10.8199
    10.8349  10.8534  10.8588  10.8775  10.8829  10.9130  10.9201  10.9304
    10.9433  10.9476  10.9592  10.9739  10.9902  10.9990  11.0070  11.0240
    11.0319  11.0483  11.0658  11.0743  11.0794  11.0939  11.1019  11.1108
    11.1210  11.1403  11.1533  11.2119  11.4946  11.4998  11.5610  11.5903
    11.7276  11.7471  11.7669  11.7915  11.7968  11.8045  11.8304  11.8382
    11.8531  11.8601  11.8857  11.8894  11.9054  11.9295  11.9394  11.9512
    11.9630  11.9945  11.9960  12.0081  12.0105  12.0360  12.0634  12.0779
    12.0976  12.1196  12.1546  12.1608  12.1680  12.1720  12.1831  12.1928
    12.1997  12.2105  12.2164  12.2306  12.2351  12.2405  12.2650  12.2775
    12.4172  12.4277  12.4488  12.4616  12.4725  12.4798  12.4881  12.5031
    12.5050  12.5211  12.5310  12.5363  12.5407  12.5593  12.5888  12.6151
    12.6440  12.6831  12.6870  12.6947  12.7166  12.7194  12.7297  12.7352
    12.7426  12.7564  12.7601  12.7732  12.7824  12.7830  12.7883  12.7936
    12.8084  12.8144  12.8193  12.8220  12.8333  12.8373  12.8487  12.8534
    12.8622  12.8674  12.8773  12.8914  12.8980  12.9083  12.9111  12.9353
    12.9440  12.9496  12.9598  12.9696  12.9782  12.9870  12.9901  13.0119
    13.0267  13.0284  13.0499  13.0512  13.0573  13.0712  13.0772  13.0919
    13.0988  13.1096  13.1173  13.1264  13.1953  13.1983  13.2587  13.2758
    13.2816  13.2871  13.3219  13.3497  13.4033  13.4124  13.4239  13.4332
    13.4399  13.4525  13.4600  13.4758  13.5011  13.5162  13.5168  13.5392
    13.5730  13.5891  13.5955  13.6177  13.6271  13.6303  13.6445  13.6456
    13.6641  13.6745  13.6791  13.6866  13.6964  13.6986  13.7137  13.7208
    13.7283  13.7413  13.7471  13.7527  13.7697  13.7729  13.7939  13.8014
    13.8112  13.8180  13.8197  13.8314  13.8513  13.8580  13.8635  13.8729
    13.8959  13.9074  13.9162  13.9251  13.9356  13.9673  13.9761  13.9832
    14.0121  14.0251  14.0444  14.0547  14.1759  14.1832  14.2124  14.2165
    14.2230  14.2287  14.2340  14.2389  14.2483  14.2607  14.2710  14.2724
    14.2882  14.2947  14.2988  14.3094  14.3248  14.3271  14.3329  14.3557
    14.3674  14.3716  14.3808  14.3826  14.3896  14.4038  14.4094  14.4168
    14.4238  14.4275  14.4366  14.4457  14.4520  14.4681  14.4692  14.4850
    14.4996  14.5194  14.5208  14.5281  14.5291  14.5440  14.5476  14.5638
    14.5653  14.5777  14.6025  14.6056  14.6139  14.6310  14.6357  14.6459
    14.6488  14.6560  14.6632  14.6771  14.6828  14.6909  14.7048  14.7161
    14.7266  14.7435  14.7573  14.7660  14.7801  14.8014  14.8212  14.8534
    15.0532  15.0793  15.0952  15.1098  15.1270  15.1335  15.1404  15.1679
    15.2280  15.2308  15.3105  15.3251  15.3362  15.3530  15.4227  15.4533
    15.5267  15.5476  15.5684  15.5757  15.5951  15.6122  15.6159  15.6239
    15.6427  15.6464  15.6631  15.6816  15.6921  15.7078  15.7096  15.7425
    15.9055  15.9363  15.9487  15.9628  15.9792  15.9817  15.9907  15.9940
    16.0232  16.0298  16.0431  16.0532  16.0606  16.0678  16.0828  16.0878
    16.0959  16.1025  16.1167  16.1263  16.1324  16.1451  16.1554  16.1720
    16.1829  16.1992  16.2316  16.2414  16.2529  16.2630  16.2752  16.2877
    16.3068  16.3186  16.3381  16.3523  16.3627  16.3750  16.3896  16.3921
    16.4168  16.4344  16.4574  16.4931  16.5174  16.5508  16.5641  16.5743
    16.5886  16.5936  16.6005  16.6279  16.6463  16.6624  16.6887  16.7057
    16.7715  16.7829  16.7895  16.8031  16.8613  16.8681  16.8724  16.8805
    16.8987  16.9093  16.9167  16.9241  16.9402  16.9468  16.9660  16.9706
    16.9757  16.9835  17.0010  17.0085  17.0143  17.0352  17.0435  17.0588
    17.0645  17.0855  17.0919  17.1348  17.1706  17.1887  17.2006  17.2069
    17.2157  17.2221  17.2405  17.2467  17.2594  17.2667  17.2714  17.2810
    17.2939  17.2971  17.3097  17.3189  17.3302  17.3379  17.3602  17.3649
    17.3745  17.3853  17.3994  17.4124  17.4384  17.4572  17.4749  17.4920
    17.4978  17.5082  17.5128  17.5276  17.5319  17.5494  17.5550  17.5601
    17.5628  17.5683  17.5786  17.5925  17.5981  17.6072  17.6088  17.6202
    17.6237  17.6399  17.6480  17.6698  17.6890  17.7021  17.7085  17.7160
    17.7695  17.7954  17.7974  17.8146  17.8192  17.8274  17.8316  17.8454
    17.8567  17.8711  17.8755  17.8911  17.9023  17.9105  17.9167  17.9243
    17.9355  17.9479  17.9564  17.9610  17.9715  17.9760  17.9895  17.9959
    17.9998  18.0157  18.0262  18.0390  18.0450  18.0565  18.0683  18.0814
    18.1018  18.1062  18.1144  18.1192  18.1338  18.1411  18.1498  18.1618
    18.1681  18.1877  18.2129  18.2205  18.3268  18.3360  18.3532  18.3669
    18.3748  18.4112  18.4268  18.4422  18.4461  18.4703  18.4982  18.5053
    18.5183  18.5228  18.5295  18.5414  18.5492  18.5593  18.5824  18.5867
    18.5943  18.5952  18.6027  18.6072  18.6311  18.6347  18.6463  18.6543
    18.6712  18.6774  18.6929  18.7006  18.7044  18.7101  18.7373  18.7896
    18.8051  18.8393  18.8484  18.8816  18.9069  18.9351  18.9471  18.9537
    18.9758  18.9920  18.9988  19.0068  19.0139  19.0552  19.0639  19.0743
    19.0835  19.1082  19.1157  19.1621  19.2022  19.2051  19.2490  19.2597
    19.2768  19.2945  19.3123  19.3374  19.3495  19.3699  19.3856  19.4165
    19.4218  19.4333  19.4486  19.4723  19.4753  19.4911  19.4971  19.5190
    19.5291  19.5467  19.5558  19.5596  19.5699  19.5778  19.5881  19.5929

     highest occupied, lowest unoccupied level (ev):     7.6414    8.7133

!    total energy              =  -38619.25509975 Ry
     estimated scf accuracy    <       0.00000209 Ry

     The total energy is the sum of the following terms:
     one-electron contribution =  -20363.40274343 Ry
     hartree contribution      =   12185.56997682 Ry
     xc contribution           =   -9605.58716143 Ry
     ewald contribution        =  -20831.53344012 Ry
     Hubbard energy            =      -4.30173158 Ry

     convergence has been achieved in  12 iterations

     Writing all to output data dir ./tmp_In0.0Ga1.0As0.75Sb0.25_cube_3x3x3.9/In0.0Ga1.0As0.75Sb0.25_cube_3x3x3.9.save/ :
     XML data file, charge density, pseudopotentials, collected wavefunctions

     init_run     :    216.89s CPU    219.33s WALL (       1 calls)
     electrons    :   8070.58s CPU   8089.99s WALL (       1 calls)

     Called by init_run:
     wfcinit      :    207.27s CPU    209.38s WALL (       1 calls)
     potinit      :      2.05s CPU      2.11s WALL (       1 calls)
     hinit0       :      1.68s CPU      1.71s WALL (       1 calls)

     Called by electrons:
     c_bands      :   7795.88s CPU   7814.09s WALL (      13 calls)
     sum_band     :    269.74s CPU    270.26s WALL (      13 calls)
     v_of_rho     :      3.33s CPU      3.47s WALL (      13 calls)
     mix_rho      :      0.72s CPU      0.73s WALL (      13 calls)

     Called by c_bands:
     init_us_2    :     29.45s CPU     29.94s WALL (      28 calls)
     cegterg      :   7502.25s CPU   7519.05s WALL (      13 calls)

     Called by *egterg:
     cdiaghg      :    719.46s CPU    720.04s WALL (     107 calls)
     h_psi        :   4434.13s CPU   4443.41s WALL (     109 calls)
     g_psi        :      3.84s CPU      3.84s WALL (      95 calls)

     Called by h_psi:
     h_psi:calbec :    794.16s CPU    794.20s WALL (     109 calls)
     vloc_psi     :    617.42s CPU    618.67s WALL (     109 calls)
     add_vuspsi   :    762.63s CPU    765.45s WALL (     109 calls)
     vhpsi        :   2252.71s CPU   2252.85s WALL (     109 calls)

     General routines
     calbec       :   1005.33s CPU   1005.39s WALL (     232 calls)
     fft          :      3.06s CPU      3.21s WALL (     131 calls)
     ffts         :      0.18s CPU      0.19s WALL (      13 calls)
     fftw         :    635.43s CPU    636.83s WALL (  159438 calls)

     Parallel routines

     Hubbard U routines
     new_ns       :     56.66s CPU     56.66s WALL (      13 calls)
     vhpsi        :   2252.71s CPU   2252.85s WALL (     109 calls)

     PWSCF        :      2h18m CPU      2h20m WALL


   This run was terminated on:   8:47:31  17Jun2025            

=------------------------------------------------------------------------------=
   JOB DONE.
=------------------------------------------------------------------------------=
