
     Program PWSCF v.7.3.1 starts on 13Jun2025 at 11: 4:57 

     This program is part of the open-source Quantum ESPRESSO suite
     for quantum simulation of materials; please cite
         "P. Giannozzi et al., J. Phys.:Condens. Matter 21 395502 (2009);
         "P. Giannozzi et al., J. Phys.:Condens. Matter 29 465901 (2017);
         "P. Giannozzi et al., J. Chem. Phys. 152 154105 (2020);
          URL http://www.quantum-espresso.org", 
     in publications or presentations arising from this work. More details at
     http://www.quantum-espresso.org/quote

     Parallel version (MPI), running on   640 processors

     MPI processes distributed on     5 nodes
     492721 MiB available memory on the printing compute node when the environment starts

     Reading input from In0.0Ga1.0As0.75Sb0.25_cube_3x3x3.0.scf.in
Warning: card &CELL ignored
Warning: card   CELL_DOFREE = 'ALL', ignored
Warning: card / ignored

     Current dimensions of program PWSCF are:
     Max number of different atomic species (ntypx) = 10
     Max number of k-points (npk) =  40000
     Max angular momentum in pseudopotentials (lmaxx) =  4

     K-points division:     npool     =       8
     R & G space division:  proc/nbgrp/npool/nimage =      80
     Subspace diagonalization in iterative solution of the eigenvalue problem:
     one sub-group per band group will be used
     custom distributed-memory algorithm (size of sub-group:  8*  8 procs)


     Parallelization info
     --------------------
     sticks:   dense  smooth     PW     G-vecs:    dense   smooth      PW
     Min         515     515    132                78709    78709   10288
     Max         516     516    133                78713    78713   10295
     Sum       41229   41229  10629              6296905  6296905  823321

     Using Slab Decomposition



     bravais-lattice index     =            1
     lattice parameter (alat)  =      32.8533  a.u.
     unit-cell volume          =   35459.8694 (a.u.)^3
     number of atoms/cell      =          216
     number of atomic types    =            4
     number of electrons       =      3024.00
     number of Kohn-Sham states=         2160
     kinetic-energy cutoff     =     120.0000  Ry
     charge density cutoff     =     480.0000  Ry
     scf convergence threshold =      1.0E-05
     mixing beta               =       0.6500
     number of iterations used =            8  plain     mixing
     Exchange-correlation= PBE
                           (   1   4   3   4   0   0   0)
     Hubbard projectors: atomic
     Hubbard parameters of DFT+U (Dudarev formulation) in eV:
     U(As-4p) =  5.8400
     U(Ga-4p) = -3.2650
     U(In-5p) = -0.9725
     U(Sb-5p) =  4.8900

     Internal variables: lda_plus_u =T, lda_plus_u_kind = 0

     celldm(1)=  32.853303  celldm(2)=   0.000000  celldm(3)=   0.000000
     celldm(4)=   0.000000  celldm(5)=   0.000000  celldm(6)=   0.000000

     crystal axes: (cart. coord. in units of alat)
               a(1) = (   1.000000   0.000000   0.000000 )  
               a(2) = (   0.000000   1.000000   0.000000 )  
               a(3) = (   0.000000   0.000000   1.000000 )  

     reciprocal axes: (cart. coord. in units 2 pi/alat)
               b(1) = (  1.000000  0.000000  0.000000 )  
               b(2) = (  0.000000  1.000000  0.000000 )  
               b(3) = (  0.000000  0.000000  1.000000 )  


     PseudoPot. # 1 for As read from file:
     /work/i254/i254/gentles/data/pseudos/As.pbe.NC-SR.standard.v0.5.UPF
     MD5 check sum: bfe1a874457ce592347346129958e7cf
     Pseudo is Norm-conserving + core correction, Zval = 15.0
     Generated using ONCVPSP code by D. R. Hamann
     Using radial grid of 1358 points,  6 beta functions with: 
                l(1) =   0
                l(2) =   0
                l(3) =   1
                l(4) =   1
                l(5) =   2
                l(6) =   2

     PseudoPot. # 2 for Ga read from file:
     /work/i254/i254/gentles/data/pseudos/Ga.pbe.NC-SR.standard.v0.5.UPF
     MD5 check sum: 2bb81bf6f0a8d9832cf3329850435ecf
     Pseudo is Norm-conserving + core correction, Zval = 13.0
     Generated using ONCVPSP code by D. R. Hamann
     Using radial grid of 1902 points,  6 beta functions with: 
                l(1) =   0
                l(2) =   0
                l(3) =   1
                l(4) =   1
                l(5) =   2
                l(6) =   2

     PseudoPot. # 3 for In read from file:
     /work/i254/i254/gentles/data/pseudos/In.pbe.NC-SR.standard.v0.5.UPF
     MD5 check sum: 835f4bf908c982ff75c88e16816a8d7f
     Pseudo is Norm-conserving + core correction, Zval = 13.0
     Generated using ONCVPSP code by D. R. Hamann
     Using radial grid of 1964 points,  6 beta functions with: 
                l(1) =   0
                l(2) =   0
                l(3) =   1
                l(4) =   1
                l(5) =   2
                l(6) =   2

     PseudoPot. # 4 for Sb read from file:
     /work/i254/i254/gentles/data/pseudos/Sb.pbe.NC-SR.standard.v0.5.UPF
     MD5 check sum: 127f69b6101c45666faeae1b5d611565
     Pseudo is Norm-conserving + core correction, Zval = 15.0
     Generated using ONCVPSP code by D. R. Hamann
     Using radial grid of 1434 points,  6 beta functions with: 
                l(1) =   0
                l(2) =   0
                l(3) =   1
                l(4) =   1
                l(5) =   2
                l(6) =   2

     atomic species   valence    mass     pseudopotential
     As               15.00    74.92160     As( 1.00)
     Ga               13.00    69.72300     Ga( 1.00)
     In               13.00   114.81800     In( 1.00)
     Sb               15.00   121.76000     Sb( 1.00)

     No symmetry found



   Cartesian axes

     site n.     atom                  positions (alat units)
         1        Ga     tau(   1) = (   0.0045610   0.0049100  -0.0048370  )
         2        Ga     tau(   2) = (   0.0037000   0.1611860   0.1725090  )
         3        Ga     tau(   3) = (   0.1672750  -0.0008780   0.1672070  )
         4        Ga     tau(   4) = (   0.1625500   0.1704120   0.0064350  )
         5        As     tau(   5) = (   0.0844990   0.0825440   0.0857340  )
         6        As     tau(   6) = (   0.0872050   0.2456250   0.2531170  )
         7        As     tau(   7) = (   0.2482590   0.0813080   0.2521310  )
         8        As     tau(   8) = (   0.2486390   0.2479370   0.0894740  )
         9        Ga     tau(   9) = (   0.0009380  -0.0021360   0.3341280  )
        10        Ga     tau(  10) = (   0.0047440   0.1606540   0.5039910  )
        11        Ga     tau(  11) = (   0.1675740  -0.0015130   0.4997250  )
        12        Ga     tau(  12) = (   0.1669320   0.1625690   0.3365350  )
        13        As     tau(  13) = (   0.0840910   0.0794940   0.4176690  )
        14        As     tau(  14) = (   0.0832320   0.2480280   0.5824390  )
        15        As     tau(  15) = (   0.2480620   0.0833030   0.5825980  )
        16        As     tau(  16) = (   0.2496680   0.2467190   0.4167090  )
        17        Ga     tau(  17) = (  -0.0007860   0.0011510   0.6634230  )
        18        Ga     tau(  18) = (   0.0001120   0.1653840   0.8304810  )
        19        Ga     tau(  19) = (   0.1611880  -0.0023010   0.8285850  )
        20        Ga     tau(  20) = (   0.1643410   0.1645820   0.6644600  )
        21        As     tau(  21) = (   0.0808550   0.0824050   0.7465170  )
        22        As     tau(  22) = (   0.0830090   0.2457650   0.9146190  )
        23        Sb     tau(  23) = (   0.2466620   0.0841750   0.9154760  )
        24        As     tau(  24) = (   0.2487300   0.2454290   0.7442600  )
        25        Ga     tau(  25) = (   0.0006060   0.3327700  -0.0107330  )
        26        Ga     tau(  26) = (   0.0045240   0.5065470   0.1747350  )
        27        Ga     tau(  27) = (   0.1696250   0.3293350   0.1720450  )
        28        Ga     tau(  28) = (   0.1675250   0.5103530   0.0003220  )
        29        Sb     tau(  29) = (   0.0840090   0.4172100   0.0836770  )
        30        As     tau(  30) = (   0.0885040   0.5875850   0.2527190  )
        31        As     tau(  31) = (   0.2496410   0.4170820   0.2505090  )
        32        As     tau(  32) = (   0.2525160   0.5867010   0.0856720  )
        33        Ga     tau(  33) = (   0.0091610   0.3309020   0.3353980  )
        34        Ga     tau(  34) = (   0.0023140   0.4935440   0.5032340  )
        35        Ga     tau(  35) = (   0.1663130   0.3298250   0.4983920  )
        36        Ga     tau(  36) = (   0.1675230   0.5002520   0.3332300  )
        37        As     tau(  37) = (   0.0872160   0.4158160   0.4175330  )
        38        As     tau(  38) = (   0.0816680   0.5820280   0.5805360  )
        39        As     tau(  39) = (   0.2463570   0.4130730   0.5800990  )
        40        As     tau(  40) = (   0.2463600   0.5842490   0.4140310  )
        41        Ga     tau(  41) = (  -0.0064310   0.3265900   0.6622240  )
        42        Ga     tau(  42) = (  -0.0041700   0.5056740   0.8360310  )
        43        Ga     tau(  43) = (   0.1673070   0.3225530   0.8311790  )
        44        Ga     tau(  44) = (   0.1659520   0.4991600   0.6583290  )
        45        Sb     tau(  45) = (   0.0799920   0.4146570   0.7488750  )
        46        As     tau(  46) = (   0.0828560   0.5877120   0.9167030  )
        47        Sb     tau(  47) = (   0.2490760   0.4142890   0.9188970  )
        48        Sb     tau(  48) = (   0.2484200   0.5866180   0.7500960  )
        49        Ga     tau(  49) = (   0.0080860   0.6699620   0.0017950  )
        50        Ga     tau(  50) = (   0.0056950   0.8313970   0.1713970  )
        51        Ga     tau(  51) = (   0.1704630   0.6684800   0.1686530  )
        52        Ga     tau(  52) = (   0.1673020   0.8348700   0.0017700  )
        53        As     tau(  53) = (   0.0880150   0.7511800   0.0862870  )
        54        As     tau(  54) = (   0.0854260   0.9171820   0.2514630  )
        55        As     tau(  55) = (   0.2494430   0.7514110   0.2527210  )
        56        As     tau(  56) = (   0.2486270   0.9151300   0.0857810  )
        57        Ga     tau(  57) = (   0.0044070   0.6723320   0.3306160  )
        58        Ga     tau(  58) = (   0.0006080   0.8344310   0.4999420  )
        59        Ga     tau(  59) = (   0.1597690   0.6631090   0.4939130  )
        60        Ga     tau(  60) = (   0.1673740   0.8357310   0.3339720  )
        61        As     tau(  61) = (   0.0831130   0.7537650   0.4155000  )
        62        As     tau(  62) = (   0.0820830   0.9187200   0.5820370  )
        63        Sb     tau(  63) = (   0.2471850   0.7517690   0.5791050  )
        64        As     tau(  64) = (   0.2497620   0.9192030   0.4136550  )
        65        Ga     tau(  65) = (   0.0015970   0.6667970   0.6645250  )
        66        Ga     tau(  66) = (   0.0026370   0.8407290   0.8300110  )
        67        Ga     tau(  67) = (   0.1614890   0.6745100   0.8361510  )
        68        Ga     tau(  68) = (   0.1622150   0.8384430   0.6679040  )
        69        As     tau(  69) = (   0.0810590   0.7536620   0.7488450  )
        70        As     tau(  70) = (   0.0849170   0.9175750   0.9163960  )
        71        As     tau(  71) = (   0.2496010   0.7526720   0.9183810  )
        72        As     tau(  72) = (   0.2478360   0.9175800   0.7503160  )
        73        Ga     tau(  73) = (   0.3308740  -0.0074700  -0.0003980  )
        74        Ga     tau(  74) = (   0.3288130   0.1659550   0.1723520  )
        75        Ga     tau(  75) = (   0.4990130  -0.0092780   0.1716020  )
        76        Ga     tau(  76) = (   0.5086050   0.1639810  -0.0007460  )
        77        Sb     tau(  77) = (   0.4169620   0.0803880   0.0851480  )
        78        As     tau(  78) = (   0.4136310   0.2492170   0.2497980  )
        79        Sb     tau(  79) = (   0.5845510   0.0831890   0.2532450  )
        80        As     tau(  80) = (   0.5842830   0.2505680   0.0822040  )
        81        Ga     tau(  81) = (   0.3330550   0.0008520   0.3329360  )
        82        Ga     tau(  82) = (   0.3328990   0.1646910   0.5000120  )
        83        Ga     tau(  83) = (   0.5046620   0.0057670   0.4959820  )
        84        Ga     tau(  84) = (   0.4948610   0.1706390   0.3373300  )
        85        As     tau(  85) = (   0.4151550   0.0841290   0.4163810  )
        86        As     tau(  86) = (   0.4160050   0.2468230   0.5828680  )
        87        As     tau(  87) = (   0.5841820   0.0864150   0.5824950  )
        88        As     tau(  88) = (   0.5836100   0.2457920   0.4203490  )
        89        Ga     tau(  89) = (   0.3284520   0.0031120   0.6691270  )
        90        Ga     tau(  90) = (   0.3345400   0.1659280   0.8241790  )
        91        Ga     tau(  91) = (   0.4988440  -0.0003580   0.8341370  )
        92        Ga     tau(  92) = (   0.4995950   0.1657970   0.6655020  )
        93        As     tau(  93) = (   0.4181790   0.0816920   0.7479790  )
        94        Sb     tau(  94) = (   0.4174110   0.2496560   0.9177370  )
        95        As     tau(  95) = (   0.5851230   0.0820260   0.9143810  )
        96        As     tau(  96) = (   0.5864750   0.2462720   0.7473310  )
        97        Ga     tau(  97) = (   0.3317480   0.3316160   0.0119370  )
        98        Ga     tau(  98) = (   0.3335760   0.5006740   0.1681460  )
        99        Ga     tau(  99) = (   0.4962390   0.3289860   0.1641010  )
       100        Ga     tau( 100) = (   0.4961510   0.4948220  -0.0030760  )
       101        As     tau( 101) = (   0.4156420   0.4164680   0.0862720  )
       102        As     tau( 102) = (   0.4131790   0.5870100   0.2508710  )
       103        Sb     tau( 103) = (   0.5844890   0.4150650   0.2517460  )
       104        Sb     tau( 104) = (   0.5802370   0.5834560   0.0855600  )
       105        Ga     tau( 105) = (   0.3293370   0.3297960   0.3301630  )
       106        Ga     tau( 106) = (   0.3220800   0.4998240   0.4983870  )
       107        Ga     tau( 107) = (   0.5047480   0.3276650   0.5044260  )
       108        Ga     tau( 108) = (   0.5000630   0.5104450   0.3335720  )
       109        Sb     tau( 109) = (   0.4168430   0.4159860   0.4173620  )
       110        Sb     tau( 110) = (   0.4162910   0.5849370   0.5787830  )
       111        As     tau( 111) = (   0.5893780   0.4119300   0.5807970  )
       112        As     tau( 112) = (   0.5857800   0.5874950   0.4166120  )
       113        Ga     tau( 113) = (   0.3281620   0.3282830   0.6607460  )
       114        Ga     tau( 114) = (   0.3371840   0.5027160   0.8369470  )
       115        Ga     tau( 115) = (   0.5096790   0.3300220   0.8317180  )
       116        Ga     tau( 116) = (   0.5058510   0.4940380   0.6567110  )
       117        Sb     tau( 117) = (   0.4183100   0.4135760   0.7466860  )
       118        As     tau( 118) = (   0.4143800   0.5840620   0.9211830  )
       119        As     tau( 119) = (   0.5841660   0.4135240   0.9171690  )
       120        Sb     tau( 120) = (   0.5837280   0.5834910   0.7480030  )
       121        Ga     tau( 121) = (   0.3328560   0.6695510   0.0026500  )
       122        Ga     tau( 122) = (   0.3303020   0.8333630   0.1693750  )
       123        Ga     tau( 123) = (   0.4940530   0.6734630   0.1716860  )
       124        Ga     tau( 124) = (   0.4957200   0.8382970   0.0044720  )
       125        As     tau( 125) = (   0.4135550   0.7539590   0.0856000  )
       126        As     tau( 126) = (   0.4133210   0.9141400   0.2525920  )
       127        As     tau( 127) = (   0.5822810   0.7526650   0.2519670  )
       128        As     tau( 128) = (   0.5821310   0.9159740   0.0863350  )
       129        Ga     tau( 129) = (   0.3314470   0.6674990   0.3337520  )
       130        Ga     tau( 130) = (   0.3335240   0.8344680   0.4884020  )
       131        Ga     tau( 131) = (   0.5033840   0.6727200   0.4944500  )
       132        Ga     tau( 132) = (   0.4989060   0.8347580   0.3327420  )
       133        As     tau( 133) = (   0.4176160   0.7504610   0.4118380  )
       134        Sb     tau( 134) = (   0.4171100   0.9179050   0.5815400  )
       135        As     tau( 135) = (   0.5842110   0.7510010   0.5816060  )
       136        As     tau( 136) = (   0.5819630   0.9168900   0.4156790  )
       137        Ga     tau( 137) = (   0.3388050   0.6751760   0.6701990  )
       138        Ga     tau( 138) = (   0.3318120   0.8354790   0.8338620  )
       139        Ga     tau( 139) = (   0.4917230   0.6657190   0.8357730  )
       140        Ga     tau( 140) = (   0.5044480   0.8316470   0.6692630  )
       141        As     tau( 141) = (   0.4178920   0.7548910   0.7536410  )
       142        As     tau( 142) = (   0.4153730   0.9165410   0.9162900  )
       143        Sb     tau( 143) = (   0.5829540   0.7536370   0.9159580  )
       144        As     tau( 144) = (   0.5819740   0.9201300   0.7483950  )
       145        Ga     tau( 145) = (   0.6611580   0.0029070   0.0047590  )
       146        Ga     tau( 146) = (   0.6688530   0.1712780   0.1636720  )
       147        Ga     tau( 147) = (   0.8294600   0.0040740   0.1712860  )
       148        Ga     tau( 148) = (   0.8292310   0.1602330  -0.0060900  )
       149        As     tau( 149) = (   0.7478670   0.0841050   0.0835080  )
       150        As     tau( 150) = (   0.7484560   0.2483190   0.2518490  )
       151        As     tau( 151) = (   0.9170050   0.0811910   0.2528190  )
       152        Sb     tau( 152) = (   0.9168450   0.2456540   0.0812840  )
       153        Ga     tau( 153) = (   0.6718160  -0.0045510   0.3394930  )
       154        Ga     tau( 154) = (   0.6689150   0.1652260   0.5007140  )
       155        Ga     tau( 155) = (   0.8395030   0.0049210   0.4961450  )
       156        Ga     tau( 156) = (   0.8304920   0.1626930   0.3299790  )
       157        As     tau( 157) = (   0.7518430   0.0828840   0.4173850  )
       158        As     tau( 158) = (   0.7506050   0.2488810   0.5828590  )
       159        As     tau( 159) = (   0.9176030   0.0837120   0.5838160  )
       160        Sb     tau( 160) = (   0.9165960   0.2481810   0.4192560  )
       161        Ga     tau( 161) = (   0.6629000   0.0056000   0.6689680  )
       162        Ga     tau( 162) = (   0.6685680   0.1656020   0.8317840  )
       163        Ga     tau( 163) = (   0.8389940   0.0041500   0.8274850  )
       164        Ga     tau( 164) = (   0.8326450   0.1657140   0.6649190  )
       165        As     tau( 165) = (   0.7508870   0.0847600   0.7486820  )
       166        As     tau( 166) = (   0.7490200   0.2492600   0.9149890  )
       167        As     tau( 167) = (   0.9186670   0.0840530   0.9125570  )
       168        As     tau( 168) = (   0.9148940   0.2462350   0.7485740  )
       169        Ga     tau( 169) = (   0.6663930   0.3322710  -0.0000560  )
       170        Ga     tau( 170) = (   0.6750190   0.4997530   0.1664870  )
       171        Ga     tau( 171) = (   0.8269130   0.3305220   0.1674740  )
       172        Ga     tau( 172) = (   0.8365220   0.4887230   0.0010960  )
       173        As     tau( 173) = (   0.7498710   0.4130270   0.0827020  )
       174        As     tau( 174) = (   0.7489410   0.5856970   0.2520090  )
       175        Sb     tau( 175) = (   0.9157010   0.4159970   0.2536880  )
       176        Sb     tau( 176) = (   0.9162490   0.5857400   0.0854670  )
       177        Ga     tau( 177) = (   0.6680450   0.3267940   0.3405130  )
       178        Ga     tau( 178) = (   0.6661750   0.5005990   0.4992210  )
       179        Ga     tau( 179) = (   0.8289010   0.3374520   0.5038120  )
       180        Ga     tau( 180) = (   0.8239790   0.5004290   0.3368290  )
       181        As     tau( 181) = (   0.7461250   0.4159580   0.4194610  )
       182        As     tau( 182) = (   0.7508250   0.5828380   0.5821170  )
       183        As     tau( 183) = (   0.9147300   0.4150920   0.5840840  )
       184        Sb     tau( 184) = (   0.9174820   0.5849050   0.4184260  )
       185        Ga     tau( 185) = (   0.6695820   0.3299120   0.6658980  )
       186        Ga     tau( 186) = (   0.6670830   0.4911230   0.8330460  )
       187        Ga     tau( 187) = (   0.8332310   0.3305540   0.8302840  )
       188        Ga     tau( 188) = (   0.8338920   0.4994350   0.6657640  )
       189        As     tau( 189) = (   0.7516420   0.4133770   0.7479050  )
       190        Sb     tau( 190) = (   0.7530860   0.5807130   0.9165660  )
       191        As     tau( 191) = (   0.9161230   0.4145540   0.9117270  )
       192        As     tau( 192) = (   0.9176090   0.5837290   0.7452090  )
       193        Ga     tau( 193) = (   0.6710500   0.6713930   0.0052350  )
       194        Ga     tau( 194) = (   0.6651500   0.8351020   0.1696760  )
       195        Ga     tau( 195) = (   0.8307110   0.6721510   0.1743040  )
       196        Ga     tau( 196) = (   0.8289380   0.8295610   0.0059850  )
       197        As     tau( 197) = (   0.7483600   0.7520030   0.0913210  )
       198        As     tau( 198) = (   0.7507920   0.9161940   0.2524270  )
       199        As     tau( 199) = (   0.9183010   0.7528240   0.2522060  )
       200        Sb     tau( 200) = (   0.9189330   0.9191690   0.0851570  )
       201        Ga     tau( 201) = (   0.6667060   0.6685920   0.3329960  )
       202        Ga     tau( 202) = (   0.6624680   0.8320040   0.4955910  )
       203        Ga     tau( 203) = (   0.8305230   0.6723940   0.5041080  )
       204        Ga     tau( 204) = (   0.8350740   0.8346480   0.3348060  )
       205        As     tau( 205) = (   0.7494650   0.7516040   0.4156350  )
       206        Sb     tau( 206) = (   0.7509680   0.9184900   0.5822600  )
       207        As     tau( 207) = (   0.9192930   0.7513070   0.5838610  )
       208        As     tau( 208) = (   0.9185920   0.9168720   0.4166690  )
       209        Ga     tau( 209) = (   0.6711810   0.6703740   0.6602280  )
       210        Ga     tau( 210) = (   0.6676530   0.8359440   0.8221910  )
       211        Ga     tau( 211) = (   0.8333450   0.6662720   0.8221760  )
       212        Ga     tau( 212) = (   0.8404720   0.8327170   0.6687450  )
       213        As     tau( 213) = (   0.7520680   0.7518220   0.7437290  )
       214        Sb     tau( 214) = (   0.7498740   0.9195010   0.9157340  )
       215        Sb     tau( 215) = (   0.9172870   0.7510120   0.9140210  )
       216        As     tau( 216) = (   0.9198590   0.9198530   0.7474380  )

     number of k points=     8
                       cart. coord. in units 2pi/alat
        k(    1) = (   0.0000000   0.0000000   0.0000000), wk =   0.2500000
        k(    2) = (   0.0000000   0.0000000  -0.5000000), wk =   0.2500000
        k(    3) = (   0.0000000  -0.5000000  -0.5000000), wk =   0.2500000
        k(    4) = (  -0.5000000  -0.5000000  -0.5000000), wk =   0.2500000
        k(    5) = (  -0.5000000   0.0000000   0.0000000), wk =   0.2500000
        k(    6) = (   0.0000000  -0.5000000   0.0000000), wk =   0.2500000
        k(    7) = (  -0.5000000   0.0000000   0.5000000), wk =   0.2500000
        k(    8) = (  -0.5000000   0.5000000   0.0000000), wk =   0.2500000

     Dense  grid:  6296905 G-vectors     FFT dimensions: ( 240, 240, 240)

     Estimated max dynamical RAM per process >       2.44 GB

     Estimated total dynamical RAM >    1553.70 GB

     Initial potential from superposition of free atoms

     starting charge    3023.6766, renormalised to    3024.0000

     STARTING HUBBARD OCCUPATIONS:

     =================== HUBBARD OCCUPATIONS ===================
     ------------------------ ATOM    1 ------------------------
     Tr[ns(  1)] =   1.00000
     eigenvalues:
       0.167  0.167  0.167
     eigenvectors (columns):
       1.000  0.000  0.000
       0.000  1.000  0.000
       0.000  0.000  1.000
     occupation matrix ns (before diag.):
       0.167  0.000  0.000
       0.000  0.167  0.000
       0.000  0.000  0.167
     ------------------------ ATOM    2 ------------------------
     Tr[ns(  2)] =   1.00000
     eigenvalues:
       0.167  0.167  0.167
     eigenvectors (columns):
       1.000  0.000  0.000
       0.000  1.000  0.000
       0.000  0.000  1.000
     occupation matrix ns (before diag.):
       0.167  0.000  0.000
       0.000  0.167  0.000
       0.000  0.000  0.167
     ------------------------ ATOM    3 ------------------------
     Tr[ns(  3)] =   1.00000
     eigenvalues:
       0.167  0.167  0.167
     eigenvectors (columns):
       1.000  0.000  0.000
       0.000  1.000  0.000
       0.000  0.000  1.000
     occupation matrix ns (before diag.):
       0.167  0.000  0.000
       0.000  0.167  0.000
       0.000  0.000  0.167
     ------------------------ ATOM    4 ------------------------
     Tr[ns(  4)] =   1.00000
     eigenvalues:
       0.167  0.167  0.167
     eigenvectors (columns):
       1.000  0.000  0.000
       0.000  1.000  0.000
       0.000  0.000  1.000
     occupation matrix ns (before diag.):
       0.167  0.000  0.000
       0.000  0.167  0.000
       0.000  0.000  0.167
     ------------------------ ATOM    5 ------------------------
     Tr[ns(  5)] =   3.00000
     eigenvalues:
       0.500  0.500  0.500
     eigenvectors (columns):
       1.000  0.000  0.000
       0.000  1.000  0.000
       0.000  0.000  1.000
     occupation matrix ns (before diag.):
       0.500  0.000  0.000
       0.000  0.500  0.000
       0.000  0.000  0.500
     ------------------------ ATOM    6 ------------------------
     Tr[ns(  6)] =   3.00000
     eigenvalues:
       0.500  0.500  0.500
     eigenvectors (columns):
       1.000  0.000  0.000
       0.000  1.000  0.000
       0.000  0.000  1.000
     occupation matrix ns (before diag.):
       0.500  0.000  0.000
       0.000  0.500  0.000
       0.000  0.000  0.500
     ------------------------ ATOM    7 ------------------------
     Tr[ns(  7)] =   3.00000
     eigenvalues:
       0.500  0.500  0.500
     eigenvectors (columns):
       1.000  0.000  0.000
       0.000  1.000  0.000
       0.000  0.000  1.000
     occupation matrix ns (before diag.):
       0.500  0.000  0.000
       0.000  0.500  0.000
       0.000  0.000  0.500
     ------------------------ ATOM    8 ------------------------
     Tr[ns(  8)] =   3.00000
     eigenvalues:
       0.500  0.500  0.500
     eigenvectors (columns):
       1.000  0.000  0.000
       0.000  1.000  0.000
       0.000  0.000  1.000
     occupation matrix ns (before diag.):
       0.500  0.000  0.000
       0.000  0.500  0.000
       0.000  0.000  0.500
     ------------------------ ATOM    9 ------------------------
     Tr[ns(  9)] =   1.00000
     eigenvalues:
       0.167  0.167  0.167
     eigenvectors (columns):
       1.000  0.000  0.000
       0.000  1.000  0.000
       0.000  0.000  1.000
     occupation matrix ns (before diag.):
       0.167  0.000  0.000
       0.000  0.167  0.000
       0.000  0.000  0.167
     ------------------------ ATOM   10 ------------------------
     Tr[ns( 10)] =   1.00000
     eigenvalues:
       0.167  0.167  0.167
     eigenvectors (columns):
       1.000  0.000  0.000
       0.000  1.000  0.000
       0.000  0.000  1.000
     occupation matrix ns (before diag.):
       0.167  0.000  0.000
       0.000  0.167  0.000
       0.000  0.000  0.167
     ------------------------ ATOM   11 ------------------------
     Tr[ns( 11)] =   1.00000
     eigenvalues:
       0.167  0.167  0.167
     eigenvectors (columns):
       1.000  0.000  0.000
       0.000  1.000  0.000
       0.000  0.000  1.000
     occupation matrix ns (before diag.):
       0.167  0.000  0.000
       0.000  0.167  0.000
       0.000  0.000  0.167
     ------------------------ ATOM   12 ------------------------
     Tr[ns( 12)] =   1.00000
     eigenvalues:
       0.167  0.167  0.167
     eigenvectors (columns):
       1.000  0.000  0.000
       0.000  1.000  0.000
       0.000  0.000  1.000
     occupation matrix ns (before diag.):
       0.167  0.000  0.000
       0.000  0.167  0.000
       0.000  0.000  0.167
     ------------------------ ATOM   13 ------------------------
     Tr[ns( 13)] =   3.00000
     eigenvalues:
       0.500  0.500  0.500
     eigenvectors (columns):
       1.000  0.000  0.000
       0.000  1.000  0.000
       0.000  0.000  1.000
     occupation matrix ns (before diag.):
       0.500  0.000  0.000
       0.000  0.500  0.000
       0.000  0.000  0.500
     ------------------------ ATOM   14 ------------------------
     Tr[ns( 14)] =   3.00000
     eigenvalues:
       0.500  0.500  0.500
     eigenvectors (columns):
       1.000  0.000  0.000
       0.000  1.000  0.000
       0.000  0.000  1.000
     occupation matrix ns (before diag.):
       0.500  0.000  0.000
       0.000  0.500  0.000
       0.000  0.000  0.500
     ------------------------ ATOM   15 ------------------------
     Tr[ns( 15)] =   3.00000
     eigenvalues:
       0.500  0.500  0.500
     eigenvectors (columns):
       1.000  0.000  0.000
       0.000  1.000  0.000
       0.000  0.000  1.000
     occupation matrix ns (before diag.):
       0.500  0.000  0.000
       0.000  0.500  0.000
       0.000  0.000  0.500
     ------------------------ ATOM   16 ------------------------
     Tr[ns( 16)] =   3.00000
     eigenvalues:
       0.500  0.500  0.500
     eigenvectors (columns):
       1.000  0.000  0.000
       0.000  1.000  0.000
       0.000  0.000  1.000
     occupation matrix ns (before diag.):
       0.500  0.000  0.000
       0.000  0.500  0.000
       0.000  0.000  0.500
     ------------------------ ATOM   17 ------------------------
     Tr[ns( 17)] =   1.00000
     eigenvalues:
       0.167  0.167  0.167
     eigenvectors (columns):
       1.000  0.000  0.000
       0.000  1.000  0.000
       0.000  0.000  1.000
     occupation matrix ns (before diag.):
       0.167  0.000  0.000
       0.000  0.167  0.000
       0.000  0.000  0.167
     ------------------------ ATOM   18 ------------------------
     Tr[ns( 18)] =   1.00000
     eigenvalues:
       0.167  0.167  0.167
     eigenvectors (columns):
       1.000  0.000  0.000
       0.000  1.000  0.000
       0.000  0.000  1.000
     occupation matrix ns (before diag.):
       0.167  0.000  0.000
       0.000  0.167  0.000
       0.000  0.000  0.167
     ------------------------ ATOM   19 ------------------------
     Tr[ns( 19)] =   1.00000
     eigenvalues:
       0.167  0.167  0.167
     eigenvectors (columns):
       1.000  0.000  0.000
       0.000  1.000  0.000
       0.000  0.000  1.000
     occupation matrix ns (before diag.):
       0.167  0.000  0.000
       0.000  0.167  0.000
       0.000  0.000  0.167
     ------------------------ ATOM   20 ------------------------
     Tr[ns( 20)] =   1.00000
     eigenvalues:
       0.167  0.167  0.167
     eigenvectors (columns):
       1.000  0.000  0.000
       0.000  1.000  0.000
       0.000  0.000  1.000
     occupation matrix ns (before diag.):
       0.167  0.000  0.000
       0.000  0.167  0.000
       0.000  0.000  0.167
     ------------------------ ATOM   21 ------------------------
     Tr[ns( 21)] =   3.00000
     eigenvalues:
       0.500  0.500  0.500
     eigenvectors (columns):
       1.000  0.000  0.000
       0.000  1.000  0.000
       0.000  0.000  1.000
     occupation matrix ns (before diag.):
       0.500  0.000  0.000
       0.000  0.500  0.000
       0.000  0.000  0.500
     ------------------------ ATOM   22 ------------------------
     Tr[ns( 22)] =   3.00000
     eigenvalues:
       0.500  0.500  0.500
     eigenvectors (columns):
       1.000  0.000  0.000
       0.000  1.000  0.000
       0.000  0.000  1.000
     occupation matrix ns (before diag.):
       0.500  0.000  0.000
       0.000  0.500  0.000
       0.000  0.000  0.500
     ------------------------ ATOM   23 ------------------------
     Tr[ns( 23)] =   3.00000
     eigenvalues:
       0.500  0.500  0.500
     eigenvectors (columns):
       1.000  0.000  0.000
       0.000  1.000  0.000
       0.000  0.000  1.000
     occupation matrix ns (before diag.):
       0.500  0.000  0.000
       0.000  0.500  0.000
       0.000  0.000  0.500
     ------------------------ ATOM   24 ------------------------
     Tr[ns( 24)] =   3.00000
     eigenvalues:
       0.500  0.500  0.500
     eigenvectors (columns):
       1.000  0.000  0.000
       0.000  1.000  0.000
       0.000  0.000  1.000
     occupation matrix ns (before diag.):
       0.500  0.000  0.000
       0.000  0.500  0.000
       0.000  0.000  0.500
     ------------------------ ATOM   25 ------------------------
     Tr[ns( 25)] =   1.00000
     eigenvalues:
       0.167  0.167  0.167
     eigenvectors (columns):
       1.000  0.000  0.000
       0.000  1.000  0.000
       0.000  0.000  1.000
     occupation matrix ns (before diag.):
       0.167  0.000  0.000
       0.000  0.167  0.000
       0.000  0.000  0.167
     ------------------------ ATOM   26 ------------------------
     Tr[ns( 26)] =   1.00000
     eigenvalues:
       0.167  0.167  0.167
     eigenvectors (columns):
       1.000  0.000  0.000
       0.000  1.000  0.000
       0.000  0.000  1.000
     occupation matrix ns (before diag.):
       0.167  0.000  0.000
       0.000  0.167  0.000
       0.000  0.000  0.167
     ------------------------ ATOM   27 ------------------------
     Tr[ns( 27)] =   1.00000
     eigenvalues:
       0.167  0.167  0.167
     eigenvectors (columns):
       1.000  0.000  0.000
       0.000  1.000  0.000
       0.000  0.000  1.000
     occupation matrix ns (before diag.):
       0.167  0.000  0.000
       0.000  0.167  0.000
       0.000  0.000  0.167
     ------------------------ ATOM   28 ------------------------
     Tr[ns( 28)] =   1.00000
     eigenvalues:
       0.167  0.167  0.167
     eigenvectors (columns):
       1.000  0.000  0.000
       0.000  1.000  0.000
       0.000  0.000  1.000
     occupation matrix ns (before diag.):
       0.167  0.000  0.000
       0.000  0.167  0.000
       0.000  0.000  0.167
     ------------------------ ATOM   29 ------------------------
     Tr[ns( 29)] =   3.00000
     eigenvalues:
       0.500  0.500  0.500
     eigenvectors (columns):
       1.000  0.000  0.000
       0.000  1.000  0.000
       0.000  0.000  1.000
     occupation matrix ns (before diag.):
       0.500  0.000  0.000
       0.000  0.500  0.000
       0.000  0.000  0.500
     ------------------------ ATOM   30 ------------------------
     Tr[ns( 30)] =   3.00000
     eigenvalues:
       0.500  0.500  0.500
     eigenvectors (columns):
       1.000  0.000  0.000
       0.000  1.000  0.000
       0.000  0.000  1.000
     occupation matrix ns (before diag.):
       0.500  0.000  0.000
       0.000  0.500  0.000
       0.000  0.000  0.500
     ------------------------ ATOM   31 ------------------------
     Tr[ns( 31)] =   3.00000
     eigenvalues:
       0.500  0.500  0.500
     eigenvectors (columns):
       1.000  0.000  0.000
       0.000  1.000  0.000
       0.000  0.000  1.000
     occupation matrix ns (before diag.):
       0.500  0.000  0.000
       0.000  0.500  0.000
       0.000  0.000  0.500
     ------------------------ ATOM   32 ------------------------
     Tr[ns( 32)] =   3.00000
     eigenvalues:
       0.500  0.500  0.500
     eigenvectors (columns):
       1.000  0.000  0.000
       0.000  1.000  0.000
       0.000  0.000  1.000
     occupation matrix ns (before diag.):
       0.500  0.000  0.000
       0.000  0.500  0.000
       0.000  0.000  0.500
     ------------------------ ATOM   33 ------------------------
     Tr[ns( 33)] =   1.00000
     eigenvalues:
       0.167  0.167  0.167
     eigenvectors (columns):
       1.000  0.000  0.000
       0.000  1.000  0.000
       0.000  0.000  1.000
     occupation matrix ns (before diag.):
       0.167  0.000  0.000
       0.000  0.167  0.000
       0.000  0.000  0.167
     ------------------------ ATOM   34 ------------------------
     Tr[ns( 34)] =   1.00000
     eigenvalues:
       0.167  0.167  0.167
     eigenvectors (columns):
       1.000  0.000  0.000
       0.000  1.000  0.000
       0.000  0.000  1.000
     occupation matrix ns (before diag.):
       0.167  0.000  0.000
       0.000  0.167  0.000
       0.000  0.000  0.167
     ------------------------ ATOM   35 ------------------------
     Tr[ns( 35)] =   1.00000
     eigenvalues:
       0.167  0.167  0.167
     eigenvectors (columns):
       1.000  0.000  0.000
       0.000  1.000  0.000
       0.000  0.000  1.000
     occupation matrix ns (before diag.):
       0.167  0.000  0.000
       0.000  0.167  0.000
       0.000  0.000  0.167
     ------------------------ ATOM   36 ------------------------
     Tr[ns( 36)] =   1.00000
     eigenvalues:
       0.167  0.167  0.167
     eigenvectors (columns):
       1.000  0.000  0.000
       0.000  1.000  0.000
       0.000  0.000  1.000
     occupation matrix ns (before diag.):
       0.167  0.000  0.000
       0.000  0.167  0.000
       0.000  0.000  0.167
     ------------------------ ATOM   37 ------------------------
     Tr[ns( 37)] =   3.00000
     eigenvalues:
       0.500  0.500  0.500
     eigenvectors (columns):
       1.000  0.000  0.000
       0.000  1.000  0.000
       0.000  0.000  1.000
     occupation matrix ns (before diag.):
       0.500  0.000  0.000
       0.000  0.500  0.000
       0.000  0.000  0.500
     ------------------------ ATOM   38 ------------------------
     Tr[ns( 38)] =   3.00000
     eigenvalues:
       0.500  0.500  0.500
     eigenvectors (columns):
       1.000  0.000  0.000
       0.000  1.000  0.000
       0.000  0.000  1.000
     occupation matrix ns (before diag.):
       0.500  0.000  0.000
       0.000  0.500  0.000
       0.000  0.000  0.500
     ------------------------ ATOM   39 ------------------------
     Tr[ns( 39)] =   3.00000
     eigenvalues:
       0.500  0.500  0.500
     eigenvectors (columns):
       1.000  0.000  0.000
       0.000  1.000  0.000
       0.000  0.000  1.000
     occupation matrix ns (before diag.):
       0.500  0.000  0.000
       0.000  0.500  0.000
       0.000  0.000  0.500
     ------------------------ ATOM   40 ------------------------
     Tr[ns( 40)] =   3.00000
     eigenvalues:
       0.500  0.500  0.500
     eigenvectors (columns):
       1.000  0.000  0.000
       0.000  1.000  0.000
       0.000  0.000  1.000
     occupation matrix ns (before diag.):
       0.500  0.000  0.000
       0.000  0.500  0.000
       0.000  0.000  0.500
     ------------------------ ATOM   41 ------------------------
     Tr[ns( 41)] =   1.00000
     eigenvalues:
       0.167  0.167  0.167
     eigenvectors (columns):
       1.000  0.000  0.000
       0.000  1.000  0.000
       0.000  0.000  1.000
     occupation matrix ns (before diag.):
       0.167  0.000  0.000
       0.000  0.167  0.000
       0.000  0.000  0.167
     ------------------------ ATOM   42 ------------------------
     Tr[ns( 42)] =   1.00000
     eigenvalues:
       0.167  0.167  0.167
     eigenvectors (columns):
       1.000  0.000  0.000
       0.000  1.000  0.000
       0.000  0.000  1.000
     occupation matrix ns (before diag.):
       0.167  0.000  0.000
       0.000  0.167  0.000
       0.000  0.000  0.167
     ------------------------ ATOM   43 ------------------------
     Tr[ns( 43)] =   1.00000
     eigenvalues:
       0.167  0.167  0.167
     eigenvectors (columns):
       1.000  0.000  0.000
       0.000  1.000  0.000
       0.000  0.000  1.000
     occupation matrix ns (before diag.):
       0.167  0.000  0.000
       0.000  0.167  0.000
       0.000  0.000  0.167
     ------------------------ ATOM   44 ------------------------
     Tr[ns( 44)] =   1.00000
     eigenvalues:
       0.167  0.167  0.167
     eigenvectors (columns):
       1.000  0.000  0.000
       0.000  1.000  0.000
       0.000  0.000  1.000
     occupation matrix ns (before diag.):
       0.167  0.000  0.000
       0.000  0.167  0.000
       0.000  0.000  0.167
     ------------------------ ATOM   45 ------------------------
     Tr[ns( 45)] =   3.00000
     eigenvalues:
       0.500  0.500  0.500
     eigenvectors (columns):
       1.000  0.000  0.000
       0.000  1.000  0.000
       0.000  0.000  1.000
     occupation matrix ns (before diag.):
       0.500  0.000  0.000
       0.000  0.500  0.000
       0.000  0.000  0.500
     ------------------------ ATOM   46 ------------------------
     Tr[ns( 46)] =   3.00000
     eigenvalues:
       0.500  0.500  0.500
     eigenvectors (columns):
       1.000  0.000  0.000
       0.000  1.000  0.000
       0.000  0.000  1.000
     occupation matrix ns (before diag.):
       0.500  0.000  0.000
       0.000  0.500  0.000
       0.000  0.000  0.500
     ------------------------ ATOM   47 ------------------------
     Tr[ns( 47)] =   3.00000
     eigenvalues:
       0.500  0.500  0.500
     eigenvectors (columns):
       1.000  0.000  0.000
       0.000  1.000  0.000
       0.000  0.000  1.000
     occupation matrix ns (before diag.):
       0.500  0.000  0.000
       0.000  0.500  0.000
       0.000  0.000  0.500
     ------------------------ ATOM   48 ------------------------
     Tr[ns( 48)] =   3.00000
     eigenvalues:
       0.500  0.500  0.500
     eigenvectors (columns):
       1.000  0.000  0.000
       0.000  1.000  0.000
       0.000  0.000  1.000
     occupation matrix ns (before diag.):
       0.500  0.000  0.000
       0.000  0.500  0.000
       0.000  0.000  0.500
     ------------------------ ATOM   49 ------------------------
     Tr[ns( 49)] =   1.00000
     eigenvalues:
       0.167  0.167  0.167
     eigenvectors (columns):
       1.000  0.000  0.000
       0.000  1.000  0.000
       0.000  0.000  1.000
     occupation matrix ns (before diag.):
       0.167  0.000  0.000
       0.000  0.167  0.000
       0.000  0.000  0.167
     ------------------------ ATOM   50 ------------------------
     Tr[ns( 50)] =   1.00000
     eigenvalues:
       0.167  0.167  0.167
     eigenvectors (columns):
       1.000  0.000  0.000
       0.000  1.000  0.000
       0.000  0.000  1.000
     occupation matrix ns (before diag.):
       0.167  0.000  0.000
       0.000  0.167  0.000
       0.000  0.000  0.167
     ------------------------ ATOM   51 ------------------------
     Tr[ns( 51)] =   1.00000
     eigenvalues:
       0.167  0.167  0.167
     eigenvectors (columns):
       1.000  0.000  0.000
       0.000  1.000  0.000
       0.000  0.000  1.000
     occupation matrix ns (before diag.):
       0.167  0.000  0.000
       0.000  0.167  0.000
       0.000  0.000  0.167
     ------------------------ ATOM   52 ------------------------
     Tr[ns( 52)] =   1.00000
     eigenvalues:
       0.167  0.167  0.167
     eigenvectors (columns):
       1.000  0.000  0.000
       0.000  1.000  0.000
       0.000  0.000  1.000
     occupation matrix ns (before diag.):
       0.167  0.000  0.000
       0.000  0.167  0.000
       0.000  0.000  0.167
     ------------------------ ATOM   53 ------------------------
     Tr[ns( 53)] =   3.00000
     eigenvalues:
       0.500  0.500  0.500
     eigenvectors (columns):
       1.000  0.000  0.000
       0.000  1.000  0.000
       0.000  0.000  1.000
     occupation matrix ns (before diag.):
       0.500  0.000  0.000
       0.000  0.500  0.000
       0.000  0.000  0.500
     ------------------------ ATOM   54 ------------------------
     Tr[ns( 54)] =   3.00000
     eigenvalues:
       0.500  0.500  0.500
     eigenvectors (columns):
       1.000  0.000  0.000
       0.000  1.000  0.000
       0.000  0.000  1.000
     occupation matrix ns (before diag.):
       0.500  0.000  0.000
       0.000  0.500  0.000
       0.000  0.000  0.500
     ------------------------ ATOM   55 ------------------------
     Tr[ns( 55)] =   3.00000
     eigenvalues:
       0.500  0.500  0.500
     eigenvectors (columns):
       1.000  0.000  0.000
       0.000  1.000  0.000
       0.000  0.000  1.000
     occupation matrix ns (before diag.):
       0.500  0.000  0.000
       0.000  0.500  0.000
       0.000  0.000  0.500
     ------------------------ ATOM   56 ------------------------
     Tr[ns( 56)] =   3.00000
     eigenvalues:
       0.500  0.500  0.500
     eigenvectors (columns):
       1.000  0.000  0.000
       0.000  1.000  0.000
       0.000  0.000  1.000
     occupation matrix ns (before diag.):
       0.500  0.000  0.000
       0.000  0.500  0.000
       0.000  0.000  0.500
     ------------------------ ATOM   57 ------------------------
     Tr[ns( 57)] =   1.00000
     eigenvalues:
       0.167  0.167  0.167
     eigenvectors (columns):
       1.000  0.000  0.000
       0.000  1.000  0.000
       0.000  0.000  1.000
     occupation matrix ns (before diag.):
       0.167  0.000  0.000
       0.000  0.167  0.000
       0.000  0.000  0.167
     ------------------------ ATOM   58 ------------------------
     Tr[ns( 58)] =   1.00000
     eigenvalues:
       0.167  0.167  0.167
     eigenvectors (columns):
       1.000  0.000  0.000
       0.000  1.000  0.000
       0.000  0.000  1.000
     occupation matrix ns (before diag.):
       0.167  0.000  0.000
       0.000  0.167  0.000
       0.000  0.000  0.167
     ------------------------ ATOM   59 ------------------------
     Tr[ns( 59)] =   1.00000
     eigenvalues:
       0.167  0.167  0.167
     eigenvectors (columns):
       1.000  0.000  0.000
       0.000  1.000  0.000
       0.000  0.000  1.000
     occupation matrix ns (before diag.):
       0.167  0.000  0.000
       0.000  0.167  0.000
       0.000  0.000  0.167
     ------------------------ ATOM   60 ------------------------
     Tr[ns( 60)] =   1.00000
     eigenvalues:
       0.167  0.167  0.167
     eigenvectors (columns):
       1.000  0.000  0.000
       0.000  1.000  0.000
       0.000  0.000  1.000
     occupation matrix ns (before diag.):
       0.167  0.000  0.000
       0.000  0.167  0.000
       0.000  0.000  0.167
     ------------------------ ATOM   61 ------------------------
     Tr[ns( 61)] =   3.00000
     eigenvalues:
       0.500  0.500  0.500
     eigenvectors (columns):
       1.000  0.000  0.000
       0.000  1.000  0.000
       0.000  0.000  1.000
     occupation matrix ns (before diag.):
       0.500  0.000  0.000
       0.000  0.500  0.000
       0.000  0.000  0.500
     ------------------------ ATOM   62 ------------------------
     Tr[ns( 62)] =   3.00000
     eigenvalues:
       0.500  0.500  0.500
     eigenvectors (columns):
       1.000  0.000  0.000
       0.000  1.000  0.000
       0.000  0.000  1.000
     occupation matrix ns (before diag.):
       0.500  0.000  0.000
       0.000  0.500  0.000
       0.000  0.000  0.500
     ------------------------ ATOM   63 ------------------------
     Tr[ns( 63)] =   3.00000
     eigenvalues:
       0.500  0.500  0.500
     eigenvectors (columns):
       1.000  0.000  0.000
       0.000  1.000  0.000
       0.000  0.000  1.000
     occupation matrix ns (before diag.):
       0.500  0.000  0.000
       0.000  0.500  0.000
       0.000  0.000  0.500
     ------------------------ ATOM   64 ------------------------
     Tr[ns( 64)] =   3.00000
     eigenvalues:
       0.500  0.500  0.500
     eigenvectors (columns):
       1.000  0.000  0.000
       0.000  1.000  0.000
       0.000  0.000  1.000
     occupation matrix ns (before diag.):
       0.500  0.000  0.000
       0.000  0.500  0.000
       0.000  0.000  0.500
     ------------------------ ATOM   65 ------------------------
     Tr[ns( 65)] =   1.00000
     eigenvalues:
       0.167  0.167  0.167
     eigenvectors (columns):
       1.000  0.000  0.000
       0.000  1.000  0.000
       0.000  0.000  1.000
     occupation matrix ns (before diag.):
       0.167  0.000  0.000
       0.000  0.167  0.000
       0.000  0.000  0.167
     ------------------------ ATOM   66 ------------------------
     Tr[ns( 66)] =   1.00000
     eigenvalues:
       0.167  0.167  0.167
     eigenvectors (columns):
       1.000  0.000  0.000
       0.000  1.000  0.000
       0.000  0.000  1.000
     occupation matrix ns (before diag.):
       0.167  0.000  0.000
       0.000  0.167  0.000
       0.000  0.000  0.167
     ------------------------ ATOM   67 ------------------------
     Tr[ns( 67)] =   1.00000
     eigenvalues:
       0.167  0.167  0.167
     eigenvectors (columns):
       1.000  0.000  0.000
       0.000  1.000  0.000
       0.000  0.000  1.000
     occupation matrix ns (before diag.):
       0.167  0.000  0.000
       0.000  0.167  0.000
       0.000  0.000  0.167
     ------------------------ ATOM   68 ------------------------
     Tr[ns( 68)] =   1.00000
     eigenvalues:
       0.167  0.167  0.167
     eigenvectors (columns):
       1.000  0.000  0.000
       0.000  1.000  0.000
       0.000  0.000  1.000
     occupation matrix ns (before diag.):
       0.167  0.000  0.000
       0.000  0.167  0.000
       0.000  0.000  0.167
     ------------------------ ATOM   69 ------------------------
     Tr[ns( 69)] =   3.00000
     eigenvalues:
       0.500  0.500  0.500
     eigenvectors (columns):
       1.000  0.000  0.000
       0.000  1.000  0.000
       0.000  0.000  1.000
     occupation matrix ns (before diag.):
       0.500  0.000  0.000
       0.000  0.500  0.000
       0.000  0.000  0.500
     ------------------------ ATOM   70 ------------------------
     Tr[ns( 70)] =   3.00000
     eigenvalues:
       0.500  0.500  0.500
     eigenvectors (columns):
       1.000  0.000  0.000
       0.000  1.000  0.000
       0.000  0.000  1.000
     occupation matrix ns (before diag.):
       0.500  0.000  0.000
       0.000  0.500  0.000
       0.000  0.000  0.500
     ------------------------ ATOM   71 ------------------------
     Tr[ns( 71)] =   3.00000
     eigenvalues:
       0.500  0.500  0.500
     eigenvectors (columns):
       1.000  0.000  0.000
       0.000  1.000  0.000
       0.000  0.000  1.000
     occupation matrix ns (before diag.):
       0.500  0.000  0.000
       0.000  0.500  0.000
       0.000  0.000  0.500
     ------------------------ ATOM   72 ------------------------
     Tr[ns( 72)] =   3.00000
     eigenvalues:
       0.500  0.500  0.500
     eigenvectors (columns):
       1.000  0.000  0.000
       0.000  1.000  0.000
       0.000  0.000  1.000
     occupation matrix ns (before diag.):
       0.500  0.000  0.000
       0.000  0.500  0.000
       0.000  0.000  0.500
     ------------------------ ATOM   73 ------------------------
     Tr[ns( 73)] =   1.00000
     eigenvalues:
       0.167  0.167  0.167
     eigenvectors (columns):
       1.000  0.000  0.000
       0.000  1.000  0.000
       0.000  0.000  1.000
     occupation matrix ns (before diag.):
       0.167  0.000  0.000
       0.000  0.167  0.000
       0.000  0.000  0.167
     ------------------------ ATOM   74 ------------------------
     Tr[ns( 74)] =   1.00000
     eigenvalues:
       0.167  0.167  0.167
     eigenvectors (columns):
       1.000  0.000  0.000
       0.000  1.000  0.000
       0.000  0.000  1.000
     occupation matrix ns (before diag.):
       0.167  0.000  0.000
       0.000  0.167  0.000
       0.000  0.000  0.167
     ------------------------ ATOM   75 ------------------------
     Tr[ns( 75)] =   1.00000
     eigenvalues:
       0.167  0.167  0.167
     eigenvectors (columns):
       1.000  0.000  0.000
       0.000  1.000  0.000
       0.000  0.000  1.000
     occupation matrix ns (before diag.):
       0.167  0.000  0.000
       0.000  0.167  0.000
       0.000  0.000  0.167
     ------------------------ ATOM   76 ------------------------
     Tr[ns( 76)] =   1.00000
     eigenvalues:
       0.167  0.167  0.167
     eigenvectors (columns):
       1.000  0.000  0.000
       0.000  1.000  0.000
       0.000  0.000  1.000
     occupation matrix ns (before diag.):
       0.167  0.000  0.000
       0.000  0.167  0.000
       0.000  0.000  0.167
     ------------------------ ATOM   77 ------------------------
     Tr[ns( 77)] =   3.00000
     eigenvalues:
       0.500  0.500  0.500
     eigenvectors (columns):
       1.000  0.000  0.000
       0.000  1.000  0.000
       0.000  0.000  1.000
     occupation matrix ns (before diag.):
       0.500  0.000  0.000
       0.000  0.500  0.000
       0.000  0.000  0.500
     ------------------------ ATOM   78 ------------------------
     Tr[ns( 78)] =   3.00000
     eigenvalues:
       0.500  0.500  0.500
     eigenvectors (columns):
       1.000  0.000  0.000
       0.000  1.000  0.000
       0.000  0.000  1.000
     occupation matrix ns (before diag.):
       0.500  0.000  0.000
       0.000  0.500  0.000
       0.000  0.000  0.500
     ------------------------ ATOM   79 ------------------------
     Tr[ns( 79)] =   3.00000
     eigenvalues:
       0.500  0.500  0.500
     eigenvectors (columns):
       1.000  0.000  0.000
       0.000  1.000  0.000
       0.000  0.000  1.000
     occupation matrix ns (before diag.):
       0.500  0.000  0.000
       0.000  0.500  0.000
       0.000  0.000  0.500
     ------------------------ ATOM   80 ------------------------
     Tr[ns( 80)] =   3.00000
     eigenvalues:
       0.500  0.500  0.500
     eigenvectors (columns):
       1.000  0.000  0.000
       0.000  1.000  0.000
       0.000  0.000  1.000
     occupation matrix ns (before diag.):
       0.500  0.000  0.000
       0.000  0.500  0.000
       0.000  0.000  0.500
     ------------------------ ATOM   81 ------------------------
     Tr[ns( 81)] =   1.00000
     eigenvalues:
       0.167  0.167  0.167
     eigenvectors (columns):
       1.000  0.000  0.000
       0.000  1.000  0.000
       0.000  0.000  1.000
     occupation matrix ns (before diag.):
       0.167  0.000  0.000
       0.000  0.167  0.000
       0.000  0.000  0.167
     ------------------------ ATOM   82 ------------------------
     Tr[ns( 82)] =   1.00000
     eigenvalues:
       0.167  0.167  0.167
     eigenvectors (columns):
       1.000  0.000  0.000
       0.000  1.000  0.000
       0.000  0.000  1.000
     occupation matrix ns (before diag.):
       0.167  0.000  0.000
       0.000  0.167  0.000
       0.000  0.000  0.167
     ------------------------ ATOM   83 ------------------------
     Tr[ns( 83)] =   1.00000
     eigenvalues:
       0.167  0.167  0.167
     eigenvectors (columns):
       1.000  0.000  0.000
       0.000  1.000  0.000
       0.000  0.000  1.000
     occupation matrix ns (before diag.):
       0.167  0.000  0.000
       0.000  0.167  0.000
       0.000  0.000  0.167
     ------------------------ ATOM   84 ------------------------
     Tr[ns( 84)] =   1.00000
     eigenvalues:
       0.167  0.167  0.167
     eigenvectors (columns):
       1.000  0.000  0.000
       0.000  1.000  0.000
       0.000  0.000  1.000
     occupation matrix ns (before diag.):
       0.167  0.000  0.000
       0.000  0.167  0.000
       0.000  0.000  0.167
     ------------------------ ATOM   85 ------------------------
     Tr[ns( 85)] =   3.00000
     eigenvalues:
       0.500  0.500  0.500
     eigenvectors (columns):
       1.000  0.000  0.000
       0.000  1.000  0.000
       0.000  0.000  1.000
     occupation matrix ns (before diag.):
       0.500  0.000  0.000
       0.000  0.500  0.000
       0.000  0.000  0.500
     ------------------------ ATOM   86 ------------------------
     Tr[ns( 86)] =   3.00000
     eigenvalues:
       0.500  0.500  0.500
     eigenvectors (columns):
       1.000  0.000  0.000
       0.000  1.000  0.000
       0.000  0.000  1.000
     occupation matrix ns (before diag.):
       0.500  0.000  0.000
       0.000  0.500  0.000
       0.000  0.000  0.500
     ------------------------ ATOM   87 ------------------------
     Tr[ns( 87)] =   3.00000
     eigenvalues:
       0.500  0.500  0.500
     eigenvectors (columns):
       1.000  0.000  0.000
       0.000  1.000  0.000
       0.000  0.000  1.000
     occupation matrix ns (before diag.):
       0.500  0.000  0.000
       0.000  0.500  0.000
       0.000  0.000  0.500
     ------------------------ ATOM   88 ------------------------
     Tr[ns( 88)] =   3.00000
     eigenvalues:
       0.500  0.500  0.500
     eigenvectors (columns):
       1.000  0.000  0.000
       0.000  1.000  0.000
       0.000  0.000  1.000
     occupation matrix ns (before diag.):
       0.500  0.000  0.000
       0.000  0.500  0.000
       0.000  0.000  0.500
     ------------------------ ATOM   89 ------------------------
     Tr[ns( 89)] =   1.00000
     eigenvalues:
       0.167  0.167  0.167
     eigenvectors (columns):
       1.000  0.000  0.000
       0.000  1.000  0.000
       0.000  0.000  1.000
     occupation matrix ns (before diag.):
       0.167  0.000  0.000
       0.000  0.167  0.000
       0.000  0.000  0.167
     ------------------------ ATOM   90 ------------------------
     Tr[ns( 90)] =   1.00000
     eigenvalues:
       0.167  0.167  0.167
     eigenvectors (columns):
       1.000  0.000  0.000
       0.000  1.000  0.000
       0.000  0.000  1.000
     occupation matrix ns (before diag.):
       0.167  0.000  0.000
       0.000  0.167  0.000
       0.000  0.000  0.167
     ------------------------ ATOM   91 ------------------------
     Tr[ns( 91)] =   1.00000
     eigenvalues:
       0.167  0.167  0.167
     eigenvectors (columns):
       1.000  0.000  0.000
       0.000  1.000  0.000
       0.000  0.000  1.000
     occupation matrix ns (before diag.):
       0.167  0.000  0.000
       0.000  0.167  0.000
       0.000  0.000  0.167
     ------------------------ ATOM   92 ------------------------
     Tr[ns( 92)] =   1.00000
     eigenvalues:
       0.167  0.167  0.167
     eigenvectors (columns):
       1.000  0.000  0.000
       0.000  1.000  0.000
       0.000  0.000  1.000
     occupation matrix ns (before diag.):
       0.167  0.000  0.000
       0.000  0.167  0.000
       0.000  0.000  0.167
     ------------------------ ATOM   93 ------------------------
     Tr[ns( 93)] =   3.00000
     eigenvalues:
       0.500  0.500  0.500
     eigenvectors (columns):
       1.000  0.000  0.000
       0.000  1.000  0.000
       0.000  0.000  1.000
     occupation matrix ns (before diag.):
       0.500  0.000  0.000
       0.000  0.500  0.000
       0.000  0.000  0.500
     ------------------------ ATOM   94 ------------------------
     Tr[ns( 94)] =   3.00000
     eigenvalues:
       0.500  0.500  0.500
     eigenvectors (columns):
       1.000  0.000  0.000
       0.000  1.000  0.000
       0.000  0.000  1.000
     occupation matrix ns (before diag.):
       0.500  0.000  0.000
       0.000  0.500  0.000
       0.000  0.000  0.500
     ------------------------ ATOM   95 ------------------------
     Tr[ns( 95)] =   3.00000
     eigenvalues:
       0.500  0.500  0.500
     eigenvectors (columns):
       1.000  0.000  0.000
       0.000  1.000  0.000
       0.000  0.000  1.000
     occupation matrix ns (before diag.):
       0.500  0.000  0.000
       0.000  0.500  0.000
       0.000  0.000  0.500
     ------------------------ ATOM   96 ------------------------
     Tr[ns( 96)] =   3.00000
     eigenvalues:
       0.500  0.500  0.500
     eigenvectors (columns):
       1.000  0.000  0.000
       0.000  1.000  0.000
       0.000  0.000  1.000
     occupation matrix ns (before diag.):
       0.500  0.000  0.000
       0.000  0.500  0.000
       0.000  0.000  0.500
     ------------------------ ATOM   97 ------------------------
     Tr[ns( 97)] =   1.00000
     eigenvalues:
       0.167  0.167  0.167
     eigenvectors (columns):
       1.000  0.000  0.000
       0.000  1.000  0.000
       0.000  0.000  1.000
     occupation matrix ns (before diag.):
       0.167  0.000  0.000
       0.000  0.167  0.000
       0.000  0.000  0.167
     ------------------------ ATOM   98 ------------------------
     Tr[ns( 98)] =   1.00000
     eigenvalues:
       0.167  0.167  0.167
     eigenvectors (columns):
       1.000  0.000  0.000
       0.000  1.000  0.000
       0.000  0.000  1.000
     occupation matrix ns (before diag.):
       0.167  0.000  0.000
       0.000  0.167  0.000
       0.000  0.000  0.167
     ------------------------ ATOM   99 ------------------------
     Tr[ns( 99)] =   1.00000
     eigenvalues:
       0.167  0.167  0.167
     eigenvectors (columns):
       1.000  0.000  0.000
       0.000  1.000  0.000
       0.000  0.000  1.000
     occupation matrix ns (before diag.):
       0.167  0.000  0.000
       0.000  0.167  0.000
       0.000  0.000  0.167
     ------------------------ ATOM  100 ------------------------
     Tr[ns(100)] =   1.00000
     eigenvalues:
       0.167  0.167  0.167
     eigenvectors (columns):
       1.000  0.000  0.000
       0.000  1.000  0.000
       0.000  0.000  1.000
     occupation matrix ns (before diag.):
       0.167  0.000  0.000
       0.000  0.167  0.000
       0.000  0.000  0.167
     ------------------------ ATOM  101 ------------------------
     Tr[ns(101)] =   3.00000
     eigenvalues:
       0.500  0.500  0.500
     eigenvectors (columns):
       1.000  0.000  0.000
       0.000  1.000  0.000
       0.000  0.000  1.000
     occupation matrix ns (before diag.):
       0.500  0.000  0.000
       0.000  0.500  0.000
       0.000  0.000  0.500
     ------------------------ ATOM  102 ------------------------
     Tr[ns(102)] =   3.00000
     eigenvalues:
       0.500  0.500  0.500
     eigenvectors (columns):
       1.000  0.000  0.000
       0.000  1.000  0.000
       0.000  0.000  1.000
     occupation matrix ns (before diag.):
       0.500  0.000  0.000
       0.000  0.500  0.000
       0.000  0.000  0.500
     ------------------------ ATOM  103 ------------------------
     Tr[ns(103)] =   3.00000
     eigenvalues:
       0.500  0.500  0.500
     eigenvectors (columns):
       1.000  0.000  0.000
       0.000  1.000  0.000
       0.000  0.000  1.000
     occupation matrix ns (before diag.):
       0.500  0.000  0.000
       0.000  0.500  0.000
       0.000  0.000  0.500
     ------------------------ ATOM  104 ------------------------
     Tr[ns(104)] =   3.00000
     eigenvalues:
       0.500  0.500  0.500
     eigenvectors (columns):
       1.000  0.000  0.000
       0.000  1.000  0.000
       0.000  0.000  1.000
     occupation matrix ns (before diag.):
       0.500  0.000  0.000
       0.000  0.500  0.000
       0.000  0.000  0.500
     ------------------------ ATOM  105 ------------------------
     Tr[ns(105)] =   1.00000
     eigenvalues:
       0.167  0.167  0.167
     eigenvectors (columns):
       1.000  0.000  0.000
       0.000  1.000  0.000
       0.000  0.000  1.000
     occupation matrix ns (before diag.):
       0.167  0.000  0.000
       0.000  0.167  0.000
       0.000  0.000  0.167
     ------------------------ ATOM  106 ------------------------
     Tr[ns(106)] =   1.00000
     eigenvalues:
       0.167  0.167  0.167
     eigenvectors (columns):
       1.000  0.000  0.000
       0.000  1.000  0.000
       0.000  0.000  1.000
     occupation matrix ns (before diag.):
       0.167  0.000  0.000
       0.000  0.167  0.000
       0.000  0.000  0.167
     ------------------------ ATOM  107 ------------------------
     Tr[ns(107)] =   1.00000
     eigenvalues:
       0.167  0.167  0.167
     eigenvectors (columns):
       1.000  0.000  0.000
       0.000  1.000  0.000
       0.000  0.000  1.000
     occupation matrix ns (before diag.):
       0.167  0.000  0.000
       0.000  0.167  0.000
       0.000  0.000  0.167
     ------------------------ ATOM  108 ------------------------
     Tr[ns(108)] =   1.00000
     eigenvalues:
       0.167  0.167  0.167
     eigenvectors (columns):
       1.000  0.000  0.000
       0.000  1.000  0.000
       0.000  0.000  1.000
     occupation matrix ns (before diag.):
       0.167  0.000  0.000
       0.000  0.167  0.000
       0.000  0.000  0.167
     ------------------------ ATOM  109 ------------------------
     Tr[ns(109)] =   3.00000
     eigenvalues:
       0.500  0.500  0.500
     eigenvectors (columns):
       1.000  0.000  0.000
       0.000  1.000  0.000
       0.000  0.000  1.000
     occupation matrix ns (before diag.):
       0.500  0.000  0.000
       0.000  0.500  0.000
       0.000  0.000  0.500
     ------------------------ ATOM  110 ------------------------
     Tr[ns(110)] =   3.00000
     eigenvalues:
       0.500  0.500  0.500
     eigenvectors (columns):
       1.000  0.000  0.000
       0.000  1.000  0.000
       0.000  0.000  1.000
     occupation matrix ns (before diag.):
       0.500  0.000  0.000
       0.000  0.500  0.000
       0.000  0.000  0.500
     ------------------------ ATOM  111 ------------------------
     Tr[ns(111)] =   3.00000
     eigenvalues:
       0.500  0.500  0.500
     eigenvectors (columns):
       1.000  0.000  0.000
       0.000  1.000  0.000
       0.000  0.000  1.000
     occupation matrix ns (before diag.):
       0.500  0.000  0.000
       0.000  0.500  0.000
       0.000  0.000  0.500
     ------------------------ ATOM  112 ------------------------
     Tr[ns(112)] =   3.00000
     eigenvalues:
       0.500  0.500  0.500
     eigenvectors (columns):
       1.000  0.000  0.000
       0.000  1.000  0.000
       0.000  0.000  1.000
     occupation matrix ns (before diag.):
       0.500  0.000  0.000
       0.000  0.500  0.000
       0.000  0.000  0.500
     ------------------------ ATOM  113 ------------------------
     Tr[ns(113)] =   1.00000
     eigenvalues:
       0.167  0.167  0.167
     eigenvectors (columns):
       1.000  0.000  0.000
       0.000  1.000  0.000
       0.000  0.000  1.000
     occupation matrix ns (before diag.):
       0.167  0.000  0.000
       0.000  0.167  0.000
       0.000  0.000  0.167
     ------------------------ ATOM  114 ------------------------
     Tr[ns(114)] =   1.00000
     eigenvalues:
       0.167  0.167  0.167
     eigenvectors (columns):
       1.000  0.000  0.000
       0.000  1.000  0.000
       0.000  0.000  1.000
     occupation matrix ns (before diag.):
       0.167  0.000  0.000
       0.000  0.167  0.000
       0.000  0.000  0.167
     ------------------------ ATOM  115 ------------------------
     Tr[ns(115)] =   1.00000
     eigenvalues:
       0.167  0.167  0.167
     eigenvectors (columns):
       1.000  0.000  0.000
       0.000  1.000  0.000
       0.000  0.000  1.000
     occupation matrix ns (before diag.):
       0.167  0.000  0.000
       0.000  0.167  0.000
       0.000  0.000  0.167
     ------------------------ ATOM  116 ------------------------
     Tr[ns(116)] =   1.00000
     eigenvalues:
       0.167  0.167  0.167
     eigenvectors (columns):
       1.000  0.000  0.000
       0.000  1.000  0.000
       0.000  0.000  1.000
     occupation matrix ns (before diag.):
       0.167  0.000  0.000
       0.000  0.167  0.000
       0.000  0.000  0.167
     ------------------------ ATOM  117 ------------------------
     Tr[ns(117)] =   3.00000
     eigenvalues:
       0.500  0.500  0.500
     eigenvectors (columns):
       1.000  0.000  0.000
       0.000  1.000  0.000
       0.000  0.000  1.000
     occupation matrix ns (before diag.):
       0.500  0.000  0.000
       0.000  0.500  0.000
       0.000  0.000  0.500
     ------------------------ ATOM  118 ------------------------
     Tr[ns(118)] =   3.00000
     eigenvalues:
       0.500  0.500  0.500
     eigenvectors (columns):
       1.000  0.000  0.000
       0.000  1.000  0.000
       0.000  0.000  1.000
     occupation matrix ns (before diag.):
       0.500  0.000  0.000
       0.000  0.500  0.000
       0.000  0.000  0.500
     ------------------------ ATOM  119 ------------------------
     Tr[ns(119)] =   3.00000
     eigenvalues:
       0.500  0.500  0.500
     eigenvectors (columns):
       1.000  0.000  0.000
       0.000  1.000  0.000
       0.000  0.000  1.000
     occupation matrix ns (before diag.):
       0.500  0.000  0.000
       0.000  0.500  0.000
       0.000  0.000  0.500
     ------------------------ ATOM  120 ------------------------
     Tr[ns(120)] =   3.00000
     eigenvalues:
       0.500  0.500  0.500
     eigenvectors (columns):
       1.000  0.000  0.000
       0.000  1.000  0.000
       0.000  0.000  1.000
     occupation matrix ns (before diag.):
       0.500  0.000  0.000
       0.000  0.500  0.000
       0.000  0.000  0.500
     ------------------------ ATOM  121 ------------------------
     Tr[ns(121)] =   1.00000
     eigenvalues:
       0.167  0.167  0.167
     eigenvectors (columns):
       1.000  0.000  0.000
       0.000  1.000  0.000
       0.000  0.000  1.000
     occupation matrix ns (before diag.):
       0.167  0.000  0.000
       0.000  0.167  0.000
       0.000  0.000  0.167
     ------------------------ ATOM  122 ------------------------
     Tr[ns(122)] =   1.00000
     eigenvalues:
       0.167  0.167  0.167
     eigenvectors (columns):
       1.000  0.000  0.000
       0.000  1.000  0.000
       0.000  0.000  1.000
     occupation matrix ns (before diag.):
       0.167  0.000  0.000
       0.000  0.167  0.000
       0.000  0.000  0.167
     ------------------------ ATOM  123 ------------------------
     Tr[ns(123)] =   1.00000
     eigenvalues:
       0.167  0.167  0.167
     eigenvectors (columns):
       1.000  0.000  0.000
       0.000  1.000  0.000
       0.000  0.000  1.000
     occupation matrix ns (before diag.):
       0.167  0.000  0.000
       0.000  0.167  0.000
       0.000  0.000  0.167
     ------------------------ ATOM  124 ------------------------
     Tr[ns(124)] =   1.00000
     eigenvalues:
       0.167  0.167  0.167
     eigenvectors (columns):
       1.000  0.000  0.000
       0.000  1.000  0.000
       0.000  0.000  1.000
     occupation matrix ns (before diag.):
       0.167  0.000  0.000
       0.000  0.167  0.000
       0.000  0.000  0.167
     ------------------------ ATOM  125 ------------------------
     Tr[ns(125)] =   3.00000
     eigenvalues:
       0.500  0.500  0.500
     eigenvectors (columns):
       1.000  0.000  0.000
       0.000  1.000  0.000
       0.000  0.000  1.000
     occupation matrix ns (before diag.):
       0.500  0.000  0.000
       0.000  0.500  0.000
       0.000  0.000  0.500
     ------------------------ ATOM  126 ------------------------
     Tr[ns(126)] =   3.00000
     eigenvalues:
       0.500  0.500  0.500
     eigenvectors (columns):
       1.000  0.000  0.000
       0.000  1.000  0.000
       0.000  0.000  1.000
     occupation matrix ns (before diag.):
       0.500  0.000  0.000
       0.000  0.500  0.000
       0.000  0.000  0.500
     ------------------------ ATOM  127 ------------------------
     Tr[ns(127)] =   3.00000
     eigenvalues:
       0.500  0.500  0.500
     eigenvectors (columns):
       1.000  0.000  0.000
       0.000  1.000  0.000
       0.000  0.000  1.000
     occupation matrix ns (before diag.):
       0.500  0.000  0.000
       0.000  0.500  0.000
       0.000  0.000  0.500
     ------------------------ ATOM  128 ------------------------
     Tr[ns(128)] =   3.00000
     eigenvalues:
       0.500  0.500  0.500
     eigenvectors (columns):
       1.000  0.000  0.000
       0.000  1.000  0.000
       0.000  0.000  1.000
     occupation matrix ns (before diag.):
       0.500  0.000  0.000
       0.000  0.500  0.000
       0.000  0.000  0.500
     ------------------------ ATOM  129 ------------------------
     Tr[ns(129)] =   1.00000
     eigenvalues:
       0.167  0.167  0.167
     eigenvectors (columns):
       1.000  0.000  0.000
       0.000  1.000  0.000
       0.000  0.000  1.000
     occupation matrix ns (before diag.):
       0.167  0.000  0.000
       0.000  0.167  0.000
       0.000  0.000  0.167
     ------------------------ ATOM  130 ------------------------
     Tr[ns(130)] =   1.00000
     eigenvalues:
       0.167  0.167  0.167
     eigenvectors (columns):
       1.000  0.000  0.000
       0.000  1.000  0.000
       0.000  0.000  1.000
     occupation matrix ns (before diag.):
       0.167  0.000  0.000
       0.000  0.167  0.000
       0.000  0.000  0.167
     ------------------------ ATOM  131 ------------------------
     Tr[ns(131)] =   1.00000
     eigenvalues:
       0.167  0.167  0.167
     eigenvectors (columns):
       1.000  0.000  0.000
       0.000  1.000  0.000
       0.000  0.000  1.000
     occupation matrix ns (before diag.):
       0.167  0.000  0.000
       0.000  0.167  0.000
       0.000  0.000  0.167
     ------------------------ ATOM  132 ------------------------
     Tr[ns(132)] =   1.00000
     eigenvalues:
       0.167  0.167  0.167
     eigenvectors (columns):
       1.000  0.000  0.000
       0.000  1.000  0.000
       0.000  0.000  1.000
     occupation matrix ns (before diag.):
       0.167  0.000  0.000
       0.000  0.167  0.000
       0.000  0.000  0.167
     ------------------------ ATOM  133 ------------------------
     Tr[ns(133)] =   3.00000
     eigenvalues:
       0.500  0.500  0.500
     eigenvectors (columns):
       1.000  0.000  0.000
       0.000  1.000  0.000
       0.000  0.000  1.000
     occupation matrix ns (before diag.):
       0.500  0.000  0.000
       0.000  0.500  0.000
       0.000  0.000  0.500
     ------------------------ ATOM  134 ------------------------
     Tr[ns(134)] =   3.00000
     eigenvalues:
       0.500  0.500  0.500
     eigenvectors (columns):
       1.000  0.000  0.000
       0.000  1.000  0.000
       0.000  0.000  1.000
     occupation matrix ns (before diag.):
       0.500  0.000  0.000
       0.000  0.500  0.000
       0.000  0.000  0.500
     ------------------------ ATOM  135 ------------------------
     Tr[ns(135)] =   3.00000
     eigenvalues:
       0.500  0.500  0.500
     eigenvectors (columns):
       1.000  0.000  0.000
       0.000  1.000  0.000
       0.000  0.000  1.000
     occupation matrix ns (before diag.):
       0.500  0.000  0.000
       0.000  0.500  0.000
       0.000  0.000  0.500
     ------------------------ ATOM  136 ------------------------
     Tr[ns(136)] =   3.00000
     eigenvalues:
       0.500  0.500  0.500
     eigenvectors (columns):
       1.000  0.000  0.000
       0.000  1.000  0.000
       0.000  0.000  1.000
     occupation matrix ns (before diag.):
       0.500  0.000  0.000
       0.000  0.500  0.000
       0.000  0.000  0.500
     ------------------------ ATOM  137 ------------------------
     Tr[ns(137)] =   1.00000
     eigenvalues:
       0.167  0.167  0.167
     eigenvectors (columns):
       1.000  0.000  0.000
       0.000  1.000  0.000
       0.000  0.000  1.000
     occupation matrix ns (before diag.):
       0.167  0.000  0.000
       0.000  0.167  0.000
       0.000  0.000  0.167
     ------------------------ ATOM  138 ------------------------
     Tr[ns(138)] =   1.00000
     eigenvalues:
       0.167  0.167  0.167
     eigenvectors (columns):
       1.000  0.000  0.000
       0.000  1.000  0.000
       0.000  0.000  1.000
     occupation matrix ns (before diag.):
       0.167  0.000  0.000
       0.000  0.167  0.000
       0.000  0.000  0.167
     ------------------------ ATOM  139 ------------------------
     Tr[ns(139)] =   1.00000
     eigenvalues:
       0.167  0.167  0.167
     eigenvectors (columns):
       1.000  0.000  0.000
       0.000  1.000  0.000
       0.000  0.000  1.000
     occupation matrix ns (before diag.):
       0.167  0.000  0.000
       0.000  0.167  0.000
       0.000  0.000  0.167
     ------------------------ ATOM  140 ------------------------
     Tr[ns(140)] =   1.00000
     eigenvalues:
       0.167  0.167  0.167
     eigenvectors (columns):
       1.000  0.000  0.000
       0.000  1.000  0.000
       0.000  0.000  1.000
     occupation matrix ns (before diag.):
       0.167  0.000  0.000
       0.000  0.167  0.000
       0.000  0.000  0.167
     ------------------------ ATOM  141 ------------------------
     Tr[ns(141)] =   3.00000
     eigenvalues:
       0.500  0.500  0.500
     eigenvectors (columns):
       1.000  0.000  0.000
       0.000  1.000  0.000
       0.000  0.000  1.000
     occupation matrix ns (before diag.):
       0.500  0.000  0.000
       0.000  0.500  0.000
       0.000  0.000  0.500
     ------------------------ ATOM  142 ------------------------
     Tr[ns(142)] =   3.00000
     eigenvalues:
       0.500  0.500  0.500
     eigenvectors (columns):
       1.000  0.000  0.000
       0.000  1.000  0.000
       0.000  0.000  1.000
     occupation matrix ns (before diag.):
       0.500  0.000  0.000
       0.000  0.500  0.000
       0.000  0.000  0.500
     ------------------------ ATOM  143 ------------------------
     Tr[ns(143)] =   3.00000
     eigenvalues:
       0.500  0.500  0.500
     eigenvectors (columns):
       1.000  0.000  0.000
       0.000  1.000  0.000
       0.000  0.000  1.000
     occupation matrix ns (before diag.):
       0.500  0.000  0.000
       0.000  0.500  0.000
       0.000  0.000  0.500
     ------------------------ ATOM  144 ------------------------
     Tr[ns(144)] =   3.00000
     eigenvalues:
       0.500  0.500  0.500
     eigenvectors (columns):
       1.000  0.000  0.000
       0.000  1.000  0.000
       0.000  0.000  1.000
     occupation matrix ns (before diag.):
       0.500  0.000  0.000
       0.000  0.500  0.000
       0.000  0.000  0.500
     ------------------------ ATOM  145 ------------------------
     Tr[ns(145)] =   1.00000
     eigenvalues:
       0.167  0.167  0.167
     eigenvectors (columns):
       1.000  0.000  0.000
       0.000  1.000  0.000
       0.000  0.000  1.000
     occupation matrix ns (before diag.):
       0.167  0.000  0.000
       0.000  0.167  0.000
       0.000  0.000  0.167
     ------------------------ ATOM  146 ------------------------
     Tr[ns(146)] =   1.00000
     eigenvalues:
       0.167  0.167  0.167
     eigenvectors (columns):
       1.000  0.000  0.000
       0.000  1.000  0.000
       0.000  0.000  1.000
     occupation matrix ns (before diag.):
       0.167  0.000  0.000
       0.000  0.167  0.000
       0.000  0.000  0.167
     ------------------------ ATOM  147 ------------------------
     Tr[ns(147)] =   1.00000
     eigenvalues:
       0.167  0.167  0.167
     eigenvectors (columns):
       1.000  0.000  0.000
       0.000  1.000  0.000
       0.000  0.000  1.000
     occupation matrix ns (before diag.):
       0.167  0.000  0.000
       0.000  0.167  0.000
       0.000  0.000  0.167
     ------------------------ ATOM  148 ------------------------
     Tr[ns(148)] =   1.00000
     eigenvalues:
       0.167  0.167  0.167
     eigenvectors (columns):
       1.000  0.000  0.000
       0.000  1.000  0.000
       0.000  0.000  1.000
     occupation matrix ns (before diag.):
       0.167  0.000  0.000
       0.000  0.167  0.000
       0.000  0.000  0.167
     ------------------------ ATOM  149 ------------------------
     Tr[ns(149)] =   3.00000
     eigenvalues:
       0.500  0.500  0.500
     eigenvectors (columns):
       1.000  0.000  0.000
       0.000  1.000  0.000
       0.000  0.000  1.000
     occupation matrix ns (before diag.):
       0.500  0.000  0.000
       0.000  0.500  0.000
       0.000  0.000  0.500
     ------------------------ ATOM  150 ------------------------
     Tr[ns(150)] =   3.00000
     eigenvalues:
       0.500  0.500  0.500
     eigenvectors (columns):
       1.000  0.000  0.000
       0.000  1.000  0.000
       0.000  0.000  1.000
     occupation matrix ns (before diag.):
       0.500  0.000  0.000
       0.000  0.500  0.000
       0.000  0.000  0.500
     ------------------------ ATOM  151 ------------------------
     Tr[ns(151)] =   3.00000
     eigenvalues:
       0.500  0.500  0.500
     eigenvectors (columns):
       1.000  0.000  0.000
       0.000  1.000  0.000
       0.000  0.000  1.000
     occupation matrix ns (before diag.):
       0.500  0.000  0.000
       0.000  0.500  0.000
       0.000  0.000  0.500
     ------------------------ ATOM  152 ------------------------
[...]
   -25.8966 -25.8965 -25.8963 -25.8963 -25.8963 -25.8960 -25.8957 -25.8957
   -25.8953 -25.8952 -25.8942 -25.8941 -25.8941 -25.8939 -25.8934 -25.8933
   -25.8929 -25.8928 -25.8927 -25.8923 -25.8919 -25.8916 -25.8916 -25.8915
   -25.8914 -25.8913 -25.8912 -25.8911 -25.8908 -25.8907 -25.8904 -25.8896
   -25.8893 -25.8892 -25.8891 -25.8887 -25.8885 -25.8869 -25.8866 -25.8861
   -25.8860 -25.8853 -25.8847 -25.8842 -25.8831 -25.8825 -25.8819 -25.8818
   -25.8817 -25.8817 -25.8814 -25.8809 -25.8806 -25.8802 -25.8799 -25.8792
   -25.8772 -25.8762 -25.8757 -25.8753 -25.8752 -25.8733 -25.8716 -25.8712
   -25.8710 -25.8701 -25.8655 -25.8631 -25.8576 -19.3758 -19.3690 -19.3674
   -19.3669 -19.3658 -19.3658 -19.3648 -19.3640 -19.3639 -19.3632 -19.3618
   -19.3610 -19.3606 -19.3604 -19.3591 -19.3589 -19.3585 -19.3576 -19.3562
   -19.3556 -19.3521 -19.3507 -19.3496 -19.3478 -19.3474 -19.3468 -19.3448
   -19.3442 -19.3439 -19.3433 -19.3419 -19.3416 -19.3408 -19.3401 -19.3399
   -19.3395 -19.3395 -19.3385 -19.3381 -19.3378 -19.3371 -19.3366 -19.3354
   -19.3349 -19.3348 -19.3346 -19.3339 -19.3336 -19.3330 -19.3313 -19.3308
   -19.3306 -19.3301 -19.3297 -19.3282 -19.3276 -19.3276 -19.3267 -19.3260
   -19.3247 -19.3246 -19.3243 -19.3241 -19.3238 -19.3238 -19.3231 -19.3229
   -19.3224 -19.3220 -19.3219 -19.3216 -19.3214 -19.3210 -19.3209 -19.3205
   -19.3203 -19.3197 -19.3191 -19.3191 -19.3182 -19.3176 -19.3174 -19.3172
   -19.3166 -19.3165 -19.3164 -19.3147 -19.3141 -19.3131 -19.3127 -19.3123
   -19.3104 -19.3091 -19.3088 -19.3081 -19.3080 -19.3077 -19.3073 -19.3057
   -19.3047 -19.3031 -19.3029 -19.3022 -19.3021 -19.3003 -19.3000 -19.2998
   -19.2995 -19.2991 -19.2988 -19.2978 -19.2975 -19.2965 -19.2964 -19.2963
   -19.2952 -19.2949 -19.2948 -19.2943 -19.2941 -19.2936 -19.2932 -19.2920
   -19.2911 -19.2906 -19.2896 -19.2890 -19.2883 -19.2844 -19.2794 -19.2758
   -19.2750 -19.2739 -19.2719 -19.2639  -7.2469  -7.2447  -7.2392  -7.2326
    -7.2300  -7.2297  -7.2269  -7.2235  -7.2216  -7.2173  -7.2146  -7.2129
    -7.2098  -7.2094  -7.2083  -7.2077  -7.2046  -7.2038  -7.2008  -7.1986
    -7.1981  -7.1963  -7.1957  -7.1944  -7.1935  -7.1932  -7.1930  -7.1926
    -7.1919  -7.1916  -7.1911  -7.1910  -7.1902  -7.1895  -7.1890  -7.1882
    -7.1879  -7.1867  -7.1862  -7.1856  -7.1851  -7.1821  -7.1816  -7.1812
    -7.1798  -7.1792  -7.1783  -7.1772  -7.1769  -7.1763  -7.1757  -7.1753
    -7.1747  -7.1742  -7.1738  -7.1731  -7.1723  -7.1719  -7.1708  -7.1705
    -7.1700  -7.1691  -7.1688  -7.1682  -7.1673  -7.1667  -7.1657  -7.1655
    -7.1650  -7.1644  -7.1633  -7.1625  -7.1620  -7.1616  -7.1611  -7.1597
    -7.1592  -7.1587  -7.1583  -7.1581  -7.1577  -7.1575  -7.1572  -7.1567
    -7.1560  -7.1553  -7.1540  -7.1533  -7.1529  -7.1518  -7.1511  -7.1510
    -7.1506  -7.1505  -7.1502  -7.1493  -7.1487  -7.1479  -7.1474  -7.1466
    -7.1464  -7.1463  -7.1461  -7.1457  -7.1449  -7.1448  -7.1444  -7.1442
    -7.1433  -7.1432  -7.1427  -7.1418  -7.1410  -7.1406  -7.1401  -7.1395
    -7.1393  -7.1388  -7.1386  -7.1385  -7.1381  -7.1374  -7.1373  -7.1368
    -7.1357  -7.1354  -7.1351  -7.1347  -7.1340  -7.1337  -7.1335  -7.1331
    -7.1329  -7.1327  -7.1321  -7.1318  -7.1311  -7.1310  -7.1302  -7.1298
    -7.1294  -7.1292  -7.1287  -7.1281  -7.1275  -7.1270  -7.1269  -7.1263
    -7.1257  -7.1252  -7.1251  -7.1246  -7.1244  -7.1241  -7.1235  -7.1232
    -7.1229  -7.1223  -7.1220  -7.1219  -7.1206  -7.1199  -7.1196  -7.1186
    -7.1179  -7.1175  -7.1168  -7.1163  -7.1162  -7.1159  -7.1157  -7.1149
    -7.1144  -7.1143  -7.1137  -7.1131  -7.1127  -7.1127  -7.1121  -7.1116
    -7.1109  -7.1106  -7.1097  -7.1095  -7.1093  -7.1092  -7.1083  -7.1080
    -7.1076  -7.1073  -7.1068  -7.1066  -7.1058  -7.1055  -7.1051  -7.1048
    -7.1043  -7.1041  -7.1036  -7.1034  -7.1028  -7.1026  -7.1020  -7.1016
    -7.1012  -7.1010  -7.1003  -7.1000  -7.0996  -7.0991  -7.0986  -7.0984
    -7.0978  -7.0976  -7.0975  -7.0972  -7.0963  -7.0961  -7.0953  -7.0952
    -7.0948  -7.0943  -7.0940  -7.0938  -7.0936  -7.0931  -7.0929  -7.0924
    -7.0920  -7.0913  -7.0911  -7.0908  -7.0903  -7.0899  -7.0895  -7.0892
    -7.0892  -7.0885  -7.0881  -7.0879  -7.0876  -7.0871  -7.0867  -7.0864
    -7.0856  -7.0854  -7.0852  -7.0848  -7.0844  -7.0840  -7.0840  -7.0839
    -7.0834  -7.0829  -7.0828  -7.0821  -7.0816  -7.0815  -7.0809  -7.0807
    -7.0802  -7.0795  -7.0795  -7.0787  -7.0785  -7.0781  -7.0778  -7.0774
    -7.0770  -7.0766  -7.0764  -7.0760  -7.0760  -7.0755  -7.0750  -7.0743
    -7.0740  -7.0734  -7.0733  -7.0730  -7.0726  -7.0720  -7.0716  -7.0712
    -7.0708  -7.0703  -7.0700  -7.0696  -7.0690  -7.0686  -7.0680  -7.0674
    -7.0673  -7.0671  -7.0659  -7.0655  -7.0653  -7.0648  -7.0644  -7.0639
    -7.0636  -7.0634  -7.0631  -7.0628  -7.0627  -7.0625  -7.0617  -7.0610
    -7.0603  -7.0601  -7.0596  -7.0595  -7.0588  -7.0587  -7.0583  -7.0579
    -7.0577  -7.0572  -7.0568  -7.0564  -7.0563  -7.0556  -7.0552  -7.0549
    -7.0543  -7.0541  -7.0536  -7.0532  -7.0525  -7.0524  -7.0520  -7.0518
    -7.0516  -7.0514  -7.0511  -7.0506  -7.0500  -7.0500  -7.0497  -7.0495
    -7.0490  -7.0487  -7.0482  -7.0478  -7.0473  -7.0469  -7.0463  -7.0461
    -7.0458  -7.0456  -7.0451  -7.0448  -7.0444  -7.0442  -7.0436  -7.0433
    -7.0430  -7.0426  -7.0421  -7.0420  -7.0414  -7.0407  -7.0401  -7.0396
    -7.0390  -7.0387  -7.0385  -7.0381  -7.0378  -7.0375  -7.0373  -7.0368
    -7.0365  -7.0359  -7.0355  -7.0354  -7.0349  -7.0344  -7.0336  -7.0329
    -7.0328  -7.0322  -7.0314  -7.0312  -7.0307  -7.0305  -7.0294  -7.0292
    -7.0286  -7.0283  -7.0278  -7.0269  -7.0261  -7.0258  -7.0255  -7.0251
    -7.0246  -7.0244  -7.0242  -7.0237  -7.0234  -7.0232  -7.0226  -7.0220
    -7.0215  -7.0213  -7.0205  -7.0203  -7.0202  -7.0193  -7.0189  -7.0183
    -7.0178  -7.0171  -7.0155  -7.0148  -7.0144  -7.0140  -7.0137  -7.0131
    -7.0123  -7.0122  -7.0116  -7.0113  -7.0108  -7.0104  -7.0103  -7.0099
    -7.0092  -7.0090  -7.0078  -7.0076  -7.0071  -7.0070  -7.0064  -7.0062
    -7.0056  -7.0051  -7.0050  -7.0042  -7.0034  -7.0029  -7.0021  -7.0018
    -7.0014  -7.0009  -7.0005  -7.0002  -6.9997  -6.9993  -6.9990  -6.9985
    -6.9982  -6.9980  -6.9970  -6.9966  -6.9954  -6.9944  -6.9939  -6.9935
    -6.9933  -6.9912  -6.9908  -6.9904  -6.9895  -6.9892  -6.9870  -6.9868
    -6.9860  -6.9854  -6.9840  -6.9835  -6.9825  -6.9823  -6.9807  -6.9801
    -6.9800  -6.9769  -6.9761  -6.9757  -6.9755  -6.9740  -6.9739  -6.9731
    -6.9725  -6.9720  -6.9717  -6.9714  -6.9687  -6.9683  -6.9677  -6.9670
    -6.9664  -6.9663  -6.9658  -6.9653  -6.9645  -6.9637  -6.9626  -6.9626
    -6.9615  -6.9603  -6.9599  -6.9597  -6.9575  -6.9565  -6.9555  -6.9554
    -6.9548  -6.9518  -6.9512  -6.9497  -6.9476  -6.9448  -6.9430  -6.9409
    -6.9401  -6.9367  -6.9358  -6.9337  -6.9302  -6.9301  -6.9286  -6.9234
    -6.9218  -6.9174  -6.9136  -6.9132  -6.9130  -6.9087  -6.9054  -6.9011
    -6.9002  -6.8956  -6.8952  -6.8929  -6.8661  -6.8623  -6.8570  -6.8541
    -3.6089  -3.5701  -3.5301  -3.5211  -3.3503  -3.2983  -3.2801  -3.2733
    -3.2322  -3.2219  -3.1667  -3.1549  -3.0468  -3.0211  -3.0124  -2.9943
    -2.9713  -2.9344  -2.9285  -2.8656  -2.7981  -2.7794  -2.7681  -2.7569
    -2.7456  -2.7372  -2.7200  -2.7043  -2.6965  -2.6799  -2.6398  -2.6321
    -2.5945  -2.5697  -2.5203  -2.4924  -2.4854  -2.4336  -2.4266  -2.4176
    -2.4073  -2.3841  -2.3687  -2.3551  -2.3306  -2.2869  -2.2766  -2.2706
    -2.2584  -2.2516  -2.1980  -2.1827  -2.1719  -2.1634  -2.1475  -2.1206
    -1.9473  -1.9392  -1.9342  -1.8986  -1.8909  -1.8884  -1.8852  -1.8621
    -1.8425  -1.8306  -1.8039  -1.7841  -1.7663  -1.7496  -1.7363  -1.7215
    -1.7138  -1.6989  -1.6704  -1.6544  -1.6135  -1.5826  -1.5423  -1.5336
    -1.4964  -1.4852  -1.4496  -1.4236  -1.4161  -1.3960  -1.3728  -1.3501
    -1.3158  -1.2935  -1.2796  -1.2717  -1.2506  -1.2048  -1.1661  -1.1444
    -1.1216  -1.0526  -1.0204  -1.0009  -0.9751  -0.9392  -0.8966  -0.8728
    -0.8467  -0.8344  -0.7911  -0.7780  -0.4643  -0.4197  -0.3228  -0.3161
     0.0653   0.0743   0.0969   0.1120   0.1170   0.1271   0.1364   0.1446
     0.1574   0.1660   0.1748   0.1803   0.1957   0.2076   0.2170   0.2211
     0.2244   0.2325   0.2452   0.2560   0.2674   0.2729   0.2908   0.2987
     0.3237   0.3374   0.3446   0.3473   0.3632   0.3823   0.3939   0.4243
     0.4285   0.4349   0.4622   0.4725   0.4920   0.5227   0.5325   0.5699
     0.5914   0.5992   0.6084   0.6329   0.6674   0.7241   0.7329   0.7563
     0.8328   0.8477   0.8887   0.9000   0.9499   0.9874   1.0073   1.0270
     1.3204   1.3331   1.3910   1.4186   1.4371   1.4449   1.4888   1.5128
     1.5472   1.5613   1.6059   1.6623   1.6816   1.7208   1.7292   1.7466
     1.7840   1.8164   1.8328   1.8645   1.8875   1.9189   1.9456   1.9503
     1.9980   2.0577   2.0687   2.0910   2.8308   2.8434   2.9130   2.9261
     2.9515   2.9734   2.9865   2.9999   3.0174   3.0336   3.0411   3.0586
     3.0833   3.0944   3.1070   3.1168   3.3248   3.3286   3.3363   3.3396
     3.3602   3.3653   3.3812   3.3922   3.3995   3.4268   3.4338   3.4573
     3.4669   3.4797   3.4907   3.4976   3.5324   3.5429   3.5740   3.5865
     3.6005   3.6133   3.6216   3.6431   3.6579   3.6706   3.6797   3.6843
     3.7200   3.7289   3.7313   3.7521   3.7748   3.7806   3.7972   3.8209
     3.8277   3.8348   3.8434   3.8641   3.8774   3.8869   3.9087   3.9233
     3.9351   3.9578   3.9628   3.9881   4.1974   4.2099   4.2608   4.2648
     4.3219   4.3475   4.3639   4.3869   4.4060   4.4196   4.4363   4.4670
     4.4807   4.4867   4.4931   4.5073   4.5104   4.5277   4.5463   4.5577
     4.5665   4.5777   4.5958   4.6101   4.6173   4.6273   4.6467   4.6560
     4.6840   4.6908   4.7007   4.7112   4.7365   4.7539   4.7715   4.7819
     4.8068   4.8292   4.8371   4.8497   4.8557   4.8648   4.8804   4.9086
     4.9199   4.9313   4.9441   4.9595   4.9679   4.9837   4.9854   5.0108
     5.0238   5.0308   5.0344   5.0499   5.0604   5.0834   5.0869   5.1012
     5.1142   5.1379   5.1435   5.1588   5.1746   5.1890   5.1970   5.2122
     5.2264   5.2370   5.2675   5.2911   5.2947   5.2993   5.3155   5.3413
     5.3492   5.3759   5.3839   5.3880   5.3968   5.4147   5.4307   5.4573
     5.4786   5.4866   5.4956   5.5068   5.5164   5.5488   5.5550   5.5646
     5.5781   5.5860   5.6001   5.6090   5.6387   5.6407   5.6475   5.6612
     5.6740   5.6960   5.7282   5.7373   5.7473   5.7698   5.7844   5.8104
     5.8141   5.8333   5.8565   5.8786   5.9196   5.9236   5.9547   5.9890
     5.9991   6.0318   6.0502   6.0621   6.0853   6.0921   6.1438   6.1453
     6.1715   6.1807   6.1836   6.2119   6.2304   6.2523   6.2699   6.2877
     6.2942   6.3219   6.3462   6.3586   6.3642   6.3812   6.3934   6.4092
     6.4328   6.4539   6.4808   6.4962   6.5231   6.5370   6.5486   6.5597
     6.6017   6.6156   6.6377   6.6424   6.6778   6.7060   6.7328   6.7431
     6.7576   6.7649   6.7851   6.8207   6.8443   6.8641   6.8694   6.9308
     6.9738   6.9936   7.1294   7.1347   7.4408   7.4656   7.5417   7.5764
     9.6124   9.6260   9.6341   9.6760   9.6812   9.7215   9.7516   9.7685
     9.8497   9.8732   9.9006   9.9113   9.9493   9.9749   9.9824   9.9932
    10.0039  10.0171  10.0230  10.0323  10.0355  10.0589  10.0692  10.0823
    10.0938  10.1171  10.1273  10.1410  10.1563  10.1858  10.1987  10.2039
    10.2455  10.2636  10.2699  10.2951  10.3249  10.3334  10.3562  10.3609
    10.3823  10.3879  10.4021  10.4124  10.4265  10.4455  10.4533  10.4666
    10.4757  10.4916  10.5043  10.5071  10.5130  10.5289  10.5377  10.5535
    10.5611  10.5749  10.5846  10.5939  10.6055  10.6325  10.6465  10.6541
    10.6619  10.6848  10.6871  10.6991  10.7120  10.7277  10.7415  10.7456
    10.7498  10.7545  10.7687  10.7705  10.7851  10.7881  10.7997  10.8150
    10.8277  10.8456  10.8534  10.8547  10.9079  10.9104  10.9219  10.9329
    10.9487  10.9544  10.9641  10.9740  10.9865  10.9890  11.0009  11.0074
    11.0258  11.0354  11.0514  11.0630  11.0838  11.0958  11.1169  11.1277
    11.1369  11.1485  11.1632  11.1927  11.4933  11.5006  11.5484  11.5636
    11.7288  11.7551  11.7737  11.7806  11.7869  11.8073  11.8127  11.8176
    11.8251  11.8459  11.8551  11.8707  11.8941  11.9170  11.9286  11.9512
    11.9623  11.9764  11.9963  12.0097  12.0305  12.0388  12.0588  12.0754
    12.0975  12.1028  12.1156  12.1507  12.1544  12.1642  12.1750  12.1794
    12.1938  12.2013  12.2114  12.2338  12.2420  12.2535  12.2650  12.2847
    12.4158  12.4307  12.4333  12.4606  12.4699  12.4772  12.4876  12.4970
    12.5088  12.5105  12.5259  12.5344  12.5476  12.5560  12.5849  12.5937
    12.6538  12.6741  12.6822  12.7063  12.7081  12.7152  12.7233  12.7318
    12.7463  12.7482  12.7554  12.7674  12.7726  12.7886  12.7916  12.7950
    12.8013  12.8143  12.8199  12.8306  12.8359  12.8426  12.8473  12.8512
    12.8566  12.8650  12.8762  12.8818  12.8878  12.8982  12.9052  12.9147
    12.9216  12.9300  12.9346  12.9447  12.9566  12.9777  12.9957  12.9985
    13.0076  13.0110  13.0304  13.0413  13.0504  13.0580  13.0711  13.0723
    13.0862  13.1079  13.1112  13.1184  13.2189  13.2308  13.2398  13.2518
    13.2836  13.2923  13.3108  13.3186  13.4074  13.4250  13.4298  13.4356
    13.4429  13.4557  13.4697  13.4735  13.4952  13.5216  13.5271  13.5469
    13.5708  13.5781  13.5873  13.5957  13.6123  13.6166  13.6252  13.6328
    13.6489  13.6606  13.6714  13.6744  13.6813  13.6842  13.6953  13.7028
    13.7037  13.7077  13.7361  13.7406  13.7665  13.7755  13.7780  13.7852
    13.8165  13.8169  13.8226  13.8322  13.8421  13.8537  13.8687  13.8751
    13.8930  13.9014  13.9181  13.9263  13.9546  13.9605  13.9695  13.9924
    14.0038  14.0262  14.0381  14.0437  14.1654  14.1768  14.1889  14.1994
    14.2047  14.2330  14.2425  14.2431  14.2535  14.2599  14.2633  14.2717
    14.2861  14.2918  14.2949  14.3055  14.3097  14.3165  14.3221  14.3448
    14.3475  14.3542  14.3563  14.3666  14.3718  14.3869  14.3929  14.4028
    14.4070  14.4150  14.4334  14.4419  14.4539  14.4588  14.4705  14.4871
    14.4938  14.5018  14.5092  14.5223  14.5315  14.5381  14.5414  14.5525
    14.5577  14.5740  14.5766  14.5894  14.6038  14.6126  14.6231  14.6307
    14.6378  14.6587  14.6631  14.6747  14.6827  14.7029  14.7136  14.7263
    14.7396  14.7449  14.7551  14.7792  14.7889  14.8150  14.8412  14.8500
    15.0564  15.0721  15.0863  15.0891  15.1070  15.1170  15.1468  15.1595
    15.2324  15.2614  15.2784  15.3006  15.3458  15.3581  15.3673  15.3879
    15.5157  15.5411  15.5540  15.5751  15.5768  15.6008  15.6114  15.6158
    15.6254  15.6501  15.6554  15.6672  15.6857  15.7003  15.7278  15.7575
    15.9178  15.9244  15.9412  15.9587  15.9638  15.9816  15.9947  15.9998
    16.0025  16.0066  16.0251  16.0314  16.0396  16.0488  16.0619  16.0728
    16.0838  16.0880  16.1108  16.1236  16.1327  16.1386  16.1471  16.1680
    16.1736  16.2075  16.2244  16.2378  16.2489  16.2750  16.2885  16.3015
    16.3098  16.3221  16.3421  16.3481  16.3555  16.3655  16.3849  16.4109
    16.4276  16.4661  16.4788  16.4954  16.5127  16.5244  16.5391  16.5477
    16.5810  16.5901  16.5966  16.6082  16.6291  16.6501  16.6560  16.6733
    16.7515  16.7643  16.7798  16.7878  16.8544  16.8626  16.8776  16.8944
    16.9027  16.9047  16.9168  16.9278  16.9311  16.9345  16.9450  16.9552
    16.9623  16.9713  16.9834  16.9892  17.0036  17.0146  17.0238  17.0350
    17.0555  17.0739  17.0968  17.1226  17.1727  17.1868  17.1945  17.2068
    17.2181  17.2235  17.2361  17.2369  17.2492  17.2687  17.2725  17.2784
    17.3000  17.3044  17.3109  17.3204  17.3256  17.3311  17.3466  17.3549
    17.3660  17.3806  17.4087  17.4129  17.4457  17.4505  17.4677  17.4789
    17.4887  17.4979  17.5071  17.5152  17.5239  17.5300  17.5371  17.5482
    17.5625  17.5697  17.5754  17.5800  17.5940  17.5984  17.6090  17.6235
    17.6395  17.6441  17.6495  17.6755  17.6842  17.6925  17.7021  17.7212
    17.7559  17.7730  17.7983  17.8062  17.8142  17.8246  17.8290  17.8464
    17.8554  17.8640  17.8666  17.8692  17.8769  17.8913  17.8982  17.8997
    17.9109  17.9217  17.9310  17.9453  17.9496  17.9641  17.9685  17.9932
    17.9978  18.0085  18.0117  18.0283  18.0346  18.0456  18.0555  18.0690
    18.0740  18.0901  18.0978  18.1067  18.1141  18.1250  18.1324  18.1434
    18.1565  18.1720  18.1760  18.1799  18.3265  18.3403  18.3577  18.3732
    18.3895  18.4129  18.4199  18.4504  18.4594  18.4750  18.4843  18.4976
    18.5092  18.5213  18.5325  18.5418  18.5444  18.5568  18.5700  18.5806
    18.5846  18.5987  18.6057  18.6110  18.6233  18.6377  18.6405  18.6511
    18.6582  18.6614  18.6773  18.6981  18.7129  18.7160  18.7266  18.7646
    18.8539  18.8691  18.8737  18.8948  18.9070  18.9322  18.9450  18.9505
    18.9734  18.9809  18.9921  19.0004  19.0181  19.0222  19.0398  19.0679
    19.0761  19.1036  19.1200  19.1320  19.1640  19.1837  19.1986  19.2263
    19.2903  19.2968  19.3042  19.3222  19.3464  19.3575  19.3637  19.3845
    19.4209  19.4318  19.4349  19.4521  19.4636  19.4867  19.5018  19.5164
    19.5268  19.5418  19.5506  19.5548  19.5591  19.5699  19.5799  19.5921

     highest occupied, lowest unoccupied level (ev):     7.6604    8.6693

!    total energy              =  -38619.23825960 Ry
     estimated scf accuracy    <       0.00000254 Ry

     The total energy is the sum of the following terms:
     one-electron contribution =  -20360.63134730 Ry
     hartree contribution      =   12183.62784908 Ry
     xc contribution           =   -9605.55653820 Ry
     ewald contribution        =  -20832.37972684 Ry
     Hubbard energy            =      -4.29849634 Ry

     convergence has been achieved in  12 iterations

     Writing all to output data dir ./tmp_In0.0Ga1.0As0.75Sb0.25_cube_3x3x3.0/In0.0Ga1.0As0.75Sb0.25_cube_3x3x3.0.save/ :
     XML data file, charge density, pseudopotentials, collected wavefunctions

     init_run     :    216.12s CPU    218.53s WALL (       1 calls)
     electrons    :   8002.86s CPU   8021.91s WALL (       1 calls)

     Called by init_run:
     wfcinit      :    206.49s CPU    208.55s WALL (       1 calls)
     potinit      :      2.05s CPU      2.10s WALL (       1 calls)
     hinit0       :      1.72s CPU      1.75s WALL (       1 calls)

     Called by electrons:
     c_bands      :   7748.35s CPU   7766.39s WALL (      13 calls)
     sum_band     :    249.56s CPU    249.93s WALL (      13 calls)
     v_of_rho     :      3.33s CPU      3.44s WALL (      13 calls)
     mix_rho      :      0.72s CPU      0.72s WALL (      13 calls)

     Called by c_bands:
     init_us_2    :     29.27s CPU     29.78s WALL (      28 calls)
     cegterg      :   7419.71s CPU   7436.43s WALL (      13 calls)

     Called by *egterg:
     cdiaghg      :    678.61s CPU    679.25s WALL (      96 calls)
     h_psi        :   4424.71s CPU   4433.80s WALL (      98 calls)
     g_psi        :      3.89s CPU      3.89s WALL (      84 calls)

     Called by h_psi:
     h_psi:calbec :    780.15s CPU    780.19s WALL (      98 calls)
     vloc_psi     :    606.39s CPU    607.51s WALL (      98 calls)
     add_vuspsi   :    755.45s CPU    758.12s WALL (      98 calls)
     vhpsi        :   2275.28s CPU   2275.42s WALL (      98 calls)

     General routines
     calbec       :    992.72s CPU    992.77s WALL (     210 calls)
     fft          :      3.06s CPU      3.17s WALL (     131 calls)
     ffts         :      0.20s CPU      0.21s WALL (      13 calls)
     fftw         :    609.28s CPU    610.46s WALL (  159274 calls)

     Parallel routines

     Hubbard U routines
     new_ns       :     56.55s CPU     56.55s WALL (      13 calls)
     vhpsi        :   2275.28s CPU   2275.42s WALL (      98 calls)

     PWSCF        :      2h17m CPU      2h18m WALL


   This run was terminated on:  13:23:46  13Jun2025            

=------------------------------------------------------------------------------=
   JOB DONE.
=------------------------------------------------------------------------------=
