
     Program PWSCF v.7.3.1 starts on  8Apr2026 at  4:26:59 

     This program is part of the open-source Quantum ESPRESSO suite
     for quantum simulation of materials; please cite
         "P. Giannozzi et al., J. Phys.:Condens. Matter 21 395502 (2009);
         "P. Giannozzi et al., J. Phys.:Condens. Matter 29 465901 (2017);
         "P. Giannozzi et al., J. Chem. Phys. 152 154105 (2020);
          URL http://www.quantum-espresso.org", 
     in publications or presentations arising from this work. More details at
     http://www.quantum-espresso.org/quote

     Parallel version (MPI), running on   640 processors

     MPI processes distributed on     5 nodes
     480530 MiB available memory on the printing compute node when the environment starts

     Reading input from In1.0Ga0.0As0.25Sb0.75_cube_3x3x3.7.scf.in
Warning: card &CELL ignored
Warning: card   CELL_DOFREE = 'ALL', ignored
Warning: card / ignored

     Current dimensions of program PWSCF are:
     Max number of different atomic species (ntypx) = 10
     Max number of k-points (npk) =  40000
     Max angular momentum in pseudopotentials (lmaxx) =  4

     K-points division:     npool     =       5
     R & G space division:  proc/nbgrp/npool/nimage =     128
     Subspace diagonalization in iterative solution of the eigenvalue problem:
     one sub-group per band group will be used
     custom distributed-memory algorithm (size of sub-group: 11* 11 procs)


     Parallelization info
     --------------------
     sticks:   dense  smooth     PW     G-vecs:    dense   smooth      PW
     Min         395     395    101                66867    66867    8705
     Max         396     396    102                66873    66873    8712
     Sum       50573   50573  12989              8559297  8559297 1114533

     Using Slab Decomposition



     bravais-lattice index     =            1
     lattice parameter (alat)  =      36.3928  a.u.
     unit-cell volume          =   48200.0748 (a.u.)^3
     number of atoms/cell      =          216
     number of atomic types    =            4
     number of electrons       =      3024.00
     number of Kohn-Sham states=         2160
     kinetic-energy cutoff     =     120.0000  Ry
     charge density cutoff     =     480.0000  Ry
     scf convergence threshold =      1.0E-05
     mixing beta               =       0.6500
     number of iterations used =            8  plain     mixing
     Exchange-correlation= PBE
                           (   1   4   3   4   0   0   0)
     Hubbard projectors: atomic
     Hubbard parameters of DFT+U (Dudarev formulation) in eV:
     U(As-4p) =  3.2600
     U(Ga-4p) = -2.3350
     U(In-5p) = -1.0575
     U(Sb-5p) =  3.1600

     Internal variables: lda_plus_u =T, lda_plus_u_kind = 0

     celldm(1)=  36.392836  celldm(2)=   0.000000  celldm(3)=   0.000000
     celldm(4)=   0.000000  celldm(5)=   0.000000  celldm(6)=   0.000000

     crystal axes: (cart. coord. in units of alat)
               a(1) = (   1.000000   0.000000   0.000000 )  
               a(2) = (   0.000000   1.000000   0.000000 )  
               a(3) = (   0.000000   0.000000   1.000000 )  

     reciprocal axes: (cart. coord. in units 2 pi/alat)
               b(1) = (  1.000000  0.000000  0.000000 )  
               b(2) = (  0.000000  1.000000  0.000000 )  
               b(3) = (  0.000000  0.000000  1.000000 )  


     PseudoPot. # 1 for As read from file:
     /work/i254/i254/gentles/data/pseudos/As.pbe.NC-SR.standard.v0.5.UPF
     MD5 check sum: bfe1a874457ce592347346129958e7cf
     Pseudo is Norm-conserving + core correction, Zval = 15.0
     Generated using ONCVPSP code by D. R. Hamann
     Using radial grid of 1358 points,  6 beta functions with: 
                l(1) =   0
                l(2) =   0
                l(3) =   1
                l(4) =   1
                l(5) =   2
                l(6) =   2

     PseudoPot. # 2 for Ga read from file:
     /work/i254/i254/gentles/data/pseudos/Ga.pbe.NC-SR.standard.v0.5.UPF
     MD5 check sum: 2bb81bf6f0a8d9832cf3329850435ecf
     Pseudo is Norm-conserving + core correction, Zval = 13.0
     Generated using ONCVPSP code by D. R. Hamann
     Using radial grid of 1902 points,  6 beta functions with: 
                l(1) =   0
                l(2) =   0
                l(3) =   1
                l(4) =   1
                l(5) =   2
                l(6) =   2

     PseudoPot. # 3 for In read from file:
     /work/i254/i254/gentles/data/pseudos/In.pbe.NC-SR.standard.v0.5.UPF
     MD5 check sum: 835f4bf908c982ff75c88e16816a8d7f
     Pseudo is Norm-conserving + core correction, Zval = 13.0
     Generated using ONCVPSP code by D. R. Hamann
     Using radial grid of 1964 points,  6 beta functions with: 
                l(1) =   0
                l(2) =   0
                l(3) =   1
                l(4) =   1
                l(5) =   2
                l(6) =   2

     PseudoPot. # 4 for Sb read from file:
     /work/i254/i254/gentles/data/pseudos/Sb.pbe.NC-SR.standard.v0.5.UPF
     MD5 check sum: 127f69b6101c45666faeae1b5d611565
     Pseudo is Norm-conserving + core correction, Zval = 15.0
     Generated using ONCVPSP code by D. R. Hamann
     Using radial grid of 1434 points,  6 beta functions with: 
                l(1) =   0
                l(2) =   0
                l(3) =   1
                l(4) =   1
                l(5) =   2
                l(6) =   2

     atomic species   valence    mass     pseudopotential
     As               15.00    74.92160     As( 1.00)
     Ga               13.00    69.72300     Ga( 1.00)
     In               13.00   114.81800     In( 1.00)
     Sb               15.00   121.76000     Sb( 1.00)

     No symmetry found



   Cartesian axes

     site n.     atom                  positions (alat units)
         1        In     tau(   1) = (  -0.0041670  -0.0052430  -0.0032180  )
         2        In     tau(   2) = (  -0.0080430   0.1662400   0.1688620  )
         3        In     tau(   3) = (   0.1647850   0.0010800   0.1679910  )
         4        In     tau(   4) = (   0.1645210   0.1662580   0.0019060  )
         5        Sb     tau(   5) = (   0.0771530   0.0820050   0.0833330  )
         6        Sb     tau(   6) = (   0.0792260   0.2503210   0.2527110  )
         7        Sb     tau(   7) = (   0.2509080   0.0859850   0.2510810  )
         8        Sb     tau(   8) = (   0.2505710   0.2507520   0.0834290  )
         9        In     tau(   9) = (  -0.0050700   0.0063620   0.3283910  )
        10        In     tau(  10) = (  -0.0051780   0.1731680   0.4939900  )
        11        In     tau(  11) = (   0.1647560   0.0001780   0.4991120  )
        12        In     tau(  12) = (   0.1699840   0.1728810   0.3371670  )
        13        Sb     tau(  13) = (   0.0814200   0.0860960   0.4151260  )
        14        Sb     tau(  14) = (   0.0851250   0.2516420   0.5784850  )
        15        Sb     tau(  15) = (   0.2512420   0.0840750   0.5806200  )
        16        As     tau(  16) = (   0.2504300   0.2522270   0.4172160  )
        17        In     tau(  17) = (  -0.0010060   0.0013960   0.6639690  )
        18        In     tau(  18) = (  -0.0029100   0.1619440   0.8390760  )
        19        In     tau(  19) = (   0.1632380  -0.0044790   0.8376290  )
        20        In     tau(  20) = (   0.1661590   0.1671110   0.6666210  )
        21        Sb     tau(  21) = (   0.0825480   0.0823170   0.7517150  )
        22        Sb     tau(  22) = (   0.0816190   0.2508560   0.9188240  )
        23        Sb     tau(  23) = (   0.2493050   0.0823800   0.9181890  )
        24        Sb     tau(  24) = (   0.2486210   0.2542070   0.7497650  )
        25        In     tau(  25) = (  -0.0039150   0.3284290   0.0076010  )
        26        In     tau(  26) = (  -0.0027330   0.4933650   0.1729630  )
        27        In     tau(  27) = (   0.1652550   0.3327650   0.1690830  )
        28        In     tau(  28) = (   0.1729870   0.4998520   0.0007550  )
        29        Sb     tau(  29) = (   0.0836090   0.4167640   0.0836650  )
        30        Sb     tau(  30) = (   0.0838150   0.5817890   0.2508430  )
        31        Sb     tau(  31) = (   0.2475220   0.4183700   0.2532710  )
        32        As     tau(  32) = (   0.2506810   0.5810670   0.0819500  )
        33        In     tau(  33) = (  -0.0025930   0.3367370   0.3377450  )
        34        In     tau(  34) = (   0.0047570   0.4980910   0.4953800  )
        35        In     tau(  35) = (   0.1705620   0.3373880   0.4951370  )
        36        In     tau(  36) = (   0.1652480   0.5003800   0.3420530  )
        37        As     tau(  37) = (   0.0841640   0.4156350   0.4168280  )
        38        Sb     tau(  38) = (   0.0865440   0.5831450   0.5823300  )
        39        As     tau(  39) = (   0.2496630   0.4179880   0.5777450  )
        40        As     tau(  40) = (   0.2503680   0.5804880   0.4184650  )
        41        In     tau(  41) = (   0.0013490   0.3309220   0.6670970  )
        42        In     tau(  42) = (   0.0015070   0.4989960   0.8344940  )
        43        In     tau(  43) = (   0.1695650   0.3385990   0.8397660  )
        44        In     tau(  44) = (   0.1718690   0.4952520   0.6618230  )
        45        Sb     tau(  45) = (   0.0859060   0.4162140   0.7496850  )
        46        Sb     tau(  46) = (   0.0869670   0.5833450   0.9163640  )
        47        As     tau(  47) = (   0.2504760   0.4194740   0.9188050  )
        48        Sb     tau(  48) = (   0.2524190   0.5814830   0.7492720  )
        49        In     tau(  49) = (   0.0011420   0.6643770   0.0019080  )
        50        In     tau(  50) = (  -0.0079490   0.8336900   0.1668260  )
        51        In     tau(  51) = (   0.1695000   0.6609090   0.1611550  )
        52        In     tau(  52) = (   0.1622090   0.8380280  -0.0025280  )
        53        Sb     tau(  53) = (   0.0823670   0.7513540   0.0850230  )
        54        Sb     tau(  54) = (   0.0788350   0.9173350   0.2494790  )
        55        Sb     tau(  55) = (   0.2486020   0.7458030   0.2502810  )
        56        Sb     tau(  56) = (   0.2502460   0.9176720   0.0842640  )
        57        In     tau(  57) = (  -0.0031850   0.6716000   0.3263780  )
        58        In     tau(  58) = (  -0.0003460   0.8351170   0.4979920  )
        59        In     tau(  59) = (   0.1710770   0.6633280   0.4944250  )
        60        In     tau(  60) = (   0.1660480   0.8341720   0.3321230  )
        61        Sb     tau(  61) = (   0.0829950   0.7491510   0.4148280  )
        62        Sb     tau(  62) = (   0.0839420   0.9148430   0.5843740  )
        63        Sb     tau(  63) = (   0.2511410   0.7478630   0.5829180  )
        64        Sb     tau(  64) = (   0.2519000   0.9173320   0.4168610  )
        65        In     tau(  65) = (   0.0043320   0.6699270   0.6688600  )
        66        In     tau(  66) = (   0.0067330   0.8339210   0.8331240  )
        67        In     tau(  67) = (   0.1636530   0.6698040   0.8266300  )
        68        In     tau(  68) = (   0.1638490   0.8271170   0.6697150  )
        69        As     tau(  69) = (   0.0822860   0.7509770   0.7502240  )
        70        As     tau(  70) = (   0.0809510   0.9164020   0.9167710  )
        71        Sb     tau(  71) = (   0.2472810   0.7485270   0.9171670  )
        72        Sb     tau(  72) = (   0.2486590   0.9153860   0.7488670  )
        73        In     tau(  73) = (   0.3372800   0.0041900   0.0048860  )
        74        In     tau(  74) = (   0.3371720   0.1639030   0.1625220  )
        75        In     tau(  75) = (   0.4980590   0.0050030   0.1642340  )
        76        In     tau(  76) = (   0.4971940   0.1644850   0.0048960  )
        77        As     tau(  77) = (   0.4177050   0.0838870   0.0840330  )
        78        Sb     tau(  78) = (   0.4155020   0.2477620   0.2522270  )
        79        Sb     tau(  79) = (   0.5851210   0.0834210   0.2523650  )
        80        Sb     tau(  80) = (   0.5836120   0.2486360   0.0880270  )
        81        In     tau(  81) = (   0.3369830   0.0046940   0.3369800  )
        82        In     tau(  82) = (   0.3330280   0.1670210   0.4917550  )
        83        In     tau(  83) = (   0.4977570  -0.0038610   0.4969760  )
        84        In     tau(  84) = (   0.4964600   0.1612970   0.3380080  )
        85        As     tau(  85) = (   0.4170640   0.0818660   0.4188130  )
        86        Sb     tau(  86) = (   0.4141560   0.2509290   0.5798000  )
        87        Sb     tau(  87) = (   0.5844740   0.0810730   0.5802070  )
        88        Sb     tau(  88) = (   0.5852150   0.2482500   0.4135840  )
        89        In     tau(  89) = (   0.3361130  -0.0042910   0.6607010  )
        90        In     tau(  90) = (   0.3319660   0.1661050   0.8309240  )
        91        In     tau(  91) = (   0.5005630  -0.0001480   0.8335890  )
        92        In     tau(  92) = (   0.4995840   0.1668620   0.6631480  )
        93        Sb     tau(  93) = (   0.4165140   0.0815710   0.7472710  )
        94        Sb     tau(  94) = (   0.4151840   0.2494560   0.9174920  )
        95        Sb     tau(  95) = (   0.5837120   0.0845670   0.9176840  )
        96        Sb     tau(  96) = (   0.5852950   0.2490340   0.7483660  )
        97        In     tau(  97) = (   0.3295410   0.3379560  -0.0036180  )
        98        In     tau(  98) = (   0.3290290   0.5032300   0.1658580  )
        99        In     tau(  99) = (   0.4979110   0.3351370   0.1688780  )
       100        In     tau( 100) = (   0.4995030   0.5081960   0.0010060  )
       101        Sb     tau( 101) = (   0.4150040   0.4200300   0.0824090  )
       102        Sb     tau( 102) = (   0.4168440   0.5831980   0.2513990  )
       103        Sb     tau( 103) = (   0.5851830   0.4179290   0.2504820  )
       104        As     tau( 104) = (   0.5821460   0.5842250   0.0835940  )
       105        In     tau( 105) = (   0.3298630   0.3310400   0.3361710  )
       106        In     tau( 106) = (   0.3299060   0.5030080   0.5024770  )
       107        In     tau( 107) = (   0.5012930   0.3333630   0.4978250  )
       108        In     tau( 108) = (   0.5036440   0.5026540   0.3372220  )
       109        Sb     tau( 109) = (   0.4149140   0.4186230   0.4177350  )
       110        As     tau( 110) = (   0.4149040   0.5815940   0.5796990  )
       111        Sb     tau( 111) = (   0.5818470   0.4197440   0.5813740  )
       112        As     tau( 112) = (   0.5827830   0.5835580   0.4172570  )
       113        In     tau( 113) = (   0.3279420   0.3384860   0.6600450  )
       114        In     tau( 114) = (   0.3331810   0.5004120   0.8417940  )
       115        In     tau( 115) = (   0.4997680   0.3329360   0.8323660  )
       116        In     tau( 116) = (   0.4934250   0.5035350   0.6621560  )
       117        Sb     tau( 117) = (   0.4129720   0.4181140   0.7495880  )
       118        As     tau( 118) = (   0.4143750   0.5827980   0.9196330  )
       119        Sb     tau( 119) = (   0.5821720   0.4184050   0.9183940  )
       120        Sb     tau( 120) = (   0.5788980   0.5838730   0.7492950  )
       121        In     tau( 121) = (   0.3311300   0.6595390   0.0003220  )
       122        In     tau( 122) = (   0.3337330   0.8313330   0.1688370  )
       123        In     tau( 123) = (   0.5038100   0.6638660   0.1659970  )
       124        In     tau( 124) = (   0.4992520   0.8325920   0.0005470  )
       125        Sb     tau( 125) = (   0.4160640   0.7461440   0.0832060  )
       126        Sb     tau( 126) = (   0.4180590   0.9188430   0.2511290  )
       127        Sb     tau( 127) = (   0.5857890   0.7486630   0.2533530  )
       128        Sb     tau( 128) = (   0.5824490   0.9176180   0.0844310  )
       129        In     tau( 129) = (   0.3298450   0.6626170   0.3385160  )
       130        In     tau( 130) = (   0.3369850   0.8360740   0.5042970  )
       131        In     tau( 131) = (   0.4987740   0.6578930   0.4990620  )
       132        In     tau( 132) = (   0.5043520   0.8368220   0.3365420  )
       133        Sb     tau( 133) = (   0.4175980   0.7492050   0.4184200  )
       134        As     tau( 134) = (   0.4179660   0.9175800   0.5805430  )
       135        Sb     tau( 135) = (   0.5815710   0.7497530   0.5777480  )
       136        As     tau( 136) = (   0.5835840   0.9181270   0.4169230  )
       137        In     tau( 137) = (   0.3385520   0.6620040   0.6622070  )
       138        In     tau( 138) = (   0.3324470   0.8321060   0.8334080  )
       139        In     tau( 139) = (   0.4937590   0.6631260   0.8377720  )
       140        In     tau( 140) = (   0.4980670   0.8372970   0.6602990  )
       141        Sb     tau( 141) = (   0.4177600   0.7501000   0.7477310  )
       142        Sb     tau( 142) = (   0.4158320   0.9173850   0.9177440  )
       143        Sb     tau( 143) = (   0.5824010   0.7469630   0.9184800  )
       144        Sb     tau( 144) = (   0.5840910   0.9166760   0.7487130  )
       145        In     tau( 145) = (   0.6682390   0.0016650   0.0023850  )
       146        In     tau( 146) = (   0.6737800   0.1700970   0.1733520  )
       147        In     tau( 147) = (   0.8411870  -0.0001620   0.1686330  )
       148        In     tau( 148) = (   0.8422630   0.1663860   0.0023900  )
       149        Sb     tau( 149) = (   0.7550880   0.0843680   0.0864750  )
       150        As     tau( 150) = (   0.7561510   0.2485310   0.2515210  )
       151        As     tau( 151) = (   0.9136780   0.0859340   0.2501240  )
       152        As     tau( 152) = (   0.9157760   0.2487120   0.0876630  )
       153        In     tau( 153) = (   0.6673640  -0.0002250   0.3399410  )
       154        In     tau( 154) = (   0.6709030   0.1618080   0.4937040  )
       155        In     tau( 155) = (   0.8293890   0.0042590   0.4931690  )
       156        In     tau( 156) = (   0.8334910   0.1659390   0.3323280  )
       157        As     tau( 157) = (   0.7513140   0.0845750   0.4122800  )
       158        Sb     tau( 158) = (   0.7506280   0.2470270   0.5810740  )
       159        Sb     tau( 159) = (   0.9142160   0.0857130   0.5798180  )
       160        As     tau( 160) = (   0.9150320   0.2501830   0.4114390  )
       161        In     tau( 161) = (   0.6710120   0.0031230   0.6698990  )
       162        In     tau( 162) = (   0.6712130   0.1629440   0.8303290  )
       163        In     tau( 163) = (   0.8342860   0.0083210   0.8350090  )
       164        In     tau( 164) = (   0.8289990   0.1624300   0.6702050  )
       165        As     tau( 165) = (   0.7512590   0.0823730   0.7513290  )
       166        Sb     tau( 166) = (   0.7530410   0.2471500   0.9177720  )
       167        As     tau( 167) = (   0.9172540   0.0820190   0.9198240  )
       168        Sb     tau( 168) = (   0.9162750   0.2464140   0.7513590  )
       169        In     tau( 169) = (   0.6667380   0.3314630   0.0013150  )
       170        In     tau( 170) = (   0.6631220   0.5045630   0.1628370  )
       171        In     tau( 171) = (   0.8377190   0.3283460   0.1718980  )
       172        In     tau( 172) = (   0.8331980   0.4993560   0.0026590  )
       173        Sb     tau( 173) = (   0.7511560   0.4140530   0.0878730  )
       174        Sb     tau( 174) = (   0.7490790   0.5840570   0.2516030  )
       175        As     tau( 175) = (   0.9176250   0.4113540   0.2514780  )
       176        Sb     tau( 176) = (   0.9168640   0.5822460   0.0887450  )
       177        In     tau( 177) = (   0.6722570   0.3282840   0.3270320  )
       178        In     tau( 178) = (   0.6637280   0.5021260   0.4934140  )
       179        In     tau( 179) = (   0.8370580   0.3276510   0.4951490  )
       180        In     tau( 180) = (   0.8367510   0.4942410   0.3270550  )
       181        Sb     tau( 181) = (   0.7512050   0.4141910   0.4140300  )
       182        Sb     tau( 182) = (   0.7476310   0.5848000   0.5798110  )
       183        Sb     tau( 183) = (   0.9191260   0.4146000   0.5797630  )
       184        Sb     tau( 184) = (   0.9168920   0.5832140   0.4118420  )
       185        In     tau( 185) = (   0.6669950   0.3343870   0.6629350  )
       186        In     tau( 186) = (   0.6659100   0.5000690   0.8314770  )
       187        In     tau( 187) = (   0.8338200   0.3337580   0.8333600  )
       188        In     tau( 188) = (   0.8350900   0.5014880   0.6620520  )
       189        Sb     tau( 189) = (   0.7515070   0.4175970   0.7474160  )
       190        Sb     tau( 190) = (   0.7488480   0.5832330   0.9184650  )
       191        Sb     tau( 191) = (   0.9176690   0.4150650   0.9196520  )
       192        Sb     tau( 192) = (   0.9181290   0.5842160   0.7502030  )
       193        In     tau( 193) = (   0.6642050   0.6638740   0.0059420  )
       194        In     tau( 194) = (   0.6675520   0.8352960   0.1693180  )
       195        In     tau( 195) = (   0.8358330   0.6709540   0.1721220  )
       196        In     tau( 196) = (   0.8375690   0.8388500   0.0043460  )
       197        Sb     tau( 197) = (   0.7514850   0.7516950   0.0847580  )
       198        Sb     tau( 198) = (   0.7530920   0.9174200   0.2532690  )
       199        As     tau( 199) = (   0.9150570   0.7522150   0.2496360  )
       200        As     tau( 200) = (   0.9176990   0.9180410   0.0846750  )
       201        In     tau( 201) = (   0.6670100   0.6655130   0.3424230  )
       202        In     tau( 202) = (   0.6658450   0.8339820   0.4917900  )
       203        In     tau( 203) = (   0.8300510   0.6697190   0.4948800  )
       204        In     tau( 204) = (   0.8321580   0.8249350   0.3333790  )
       205        As     tau( 205) = (   0.7488500   0.7501730   0.4160320  )
       206        Sb     tau( 206) = (   0.7487990   0.9183480   0.5795340  )
       207        Sb     tau( 207) = (   0.9171010   0.7497460   0.5819320  )
       208        Sb     tau( 208) = (   0.9143120   0.9171180   0.4125570  )
       209        In     tau( 209) = (   0.6643540   0.6685730   0.6661850  )
       210        In     tau( 210) = (   0.6666510   0.8325240   0.8348140  )
       211        In     tau( 211) = (   0.8340030   0.6682830   0.8353610  )
       212        In     tau( 212) = (   0.8342130   0.8359300   0.6652080  )
       213        Sb     tau( 213) = (   0.7506620   0.7508710   0.7493010  )
       214        Sb     tau( 214) = (   0.7520290   0.9192730   0.9171290  )
       215        Sb     tau( 215) = (   0.9198180   0.7523850   0.9185620  )
       216        Sb     tau( 216) = (   0.9175670   0.9193270   0.7522300  )

     number of k points=     8
                       cart. coord. in units 2pi/alat
        k(    1) = (   0.0000000   0.0000000   0.0000000), wk =   0.2500000
        k(    2) = (   0.0000000   0.0000000  -0.5000000), wk =   0.2500000
        k(    3) = (   0.0000000  -0.5000000  -0.5000000), wk =   0.2500000
        k(    4) = (  -0.5000000  -0.5000000  -0.5000000), wk =   0.2500000
        k(    5) = (  -0.5000000   0.0000000   0.0000000), wk =   0.2500000
        k(    6) = (   0.0000000  -0.5000000   0.0000000), wk =   0.2500000
        k(    7) = (  -0.5000000   0.0000000   0.5000000), wk =   0.2500000
        k(    8) = (  -0.5000000   0.5000000   0.0000000), wk =   0.2500000

     Dense  grid:  8559297 G-vectors     FFT dimensions: ( 256, 256, 256)

     Estimated max dynamical RAM per process >       2.79 GB

     Estimated total dynamical RAM >    1777.79 GB

     Initial potential from superposition of free atoms

     starting charge    3023.5275, renormalised to    3024.0000

     STARTING HUBBARD OCCUPATIONS:

     =================== HUBBARD OCCUPATIONS ===================
     ------------------------ ATOM    1 ------------------------
     Tr[ns(  1)] =   1.00000
     eigenvalues:
       0.167  0.167  0.167
     eigenvectors (columns):
       1.000  0.000  0.000
       0.000  1.000  0.000
       0.000  0.000  1.000
     occupation matrix ns (before diag.):
       0.167  0.000  0.000
       0.000  0.167  0.000
       0.000  0.000  0.167
     ------------------------ ATOM    2 ------------------------
     Tr[ns(  2)] =   1.00000
     eigenvalues:
       0.167  0.167  0.167
     eigenvectors (columns):
       1.000  0.000  0.000
       0.000  1.000  0.000
       0.000  0.000  1.000
     occupation matrix ns (before diag.):
       0.167  0.000  0.000
       0.000  0.167  0.000
       0.000  0.000  0.167
     ------------------------ ATOM    3 ------------------------
     Tr[ns(  3)] =   1.00000
     eigenvalues:
       0.167  0.167  0.167
     eigenvectors (columns):
       1.000  0.000  0.000
       0.000  1.000  0.000
       0.000  0.000  1.000
     occupation matrix ns (before diag.):
       0.167  0.000  0.000
       0.000  0.167  0.000
       0.000  0.000  0.167
     ------------------------ ATOM    4 ------------------------
     Tr[ns(  4)] =   1.00000
     eigenvalues:
       0.167  0.167  0.167
     eigenvectors (columns):
       1.000  0.000  0.000
       0.000  1.000  0.000
       0.000  0.000  1.000
     occupation matrix ns (before diag.):
       0.167  0.000  0.000
       0.000  0.167  0.000
       0.000  0.000  0.167
     ------------------------ ATOM    5 ------------------------
     Tr[ns(  5)] =   3.00000
     eigenvalues:
       0.500  0.500  0.500
     eigenvectors (columns):
       1.000  0.000  0.000
       0.000  1.000  0.000
       0.000  0.000  1.000
     occupation matrix ns (before diag.):
       0.500  0.000  0.000
       0.000  0.500  0.000
       0.000  0.000  0.500
     ------------------------ ATOM    6 ------------------------
     Tr[ns(  6)] =   3.00000
     eigenvalues:
       0.500  0.500  0.500
     eigenvectors (columns):
       1.000  0.000  0.000
       0.000  1.000  0.000
       0.000  0.000  1.000
     occupation matrix ns (before diag.):
       0.500  0.000  0.000
       0.000  0.500  0.000
       0.000  0.000  0.500
     ------------------------ ATOM    7 ------------------------
     Tr[ns(  7)] =   3.00000
     eigenvalues:
       0.500  0.500  0.500
     eigenvectors (columns):
       1.000  0.000  0.000
       0.000  1.000  0.000
       0.000  0.000  1.000
     occupation matrix ns (before diag.):
       0.500  0.000  0.000
       0.000  0.500  0.000
       0.000  0.000  0.500
     ------------------------ ATOM    8 ------------------------
     Tr[ns(  8)] =   3.00000
     eigenvalues:
       0.500  0.500  0.500
     eigenvectors (columns):
       1.000  0.000  0.000
       0.000  1.000  0.000
       0.000  0.000  1.000
     occupation matrix ns (before diag.):
       0.500  0.000  0.000
       0.000  0.500  0.000
       0.000  0.000  0.500
     ------------------------ ATOM    9 ------------------------
     Tr[ns(  9)] =   1.00000
     eigenvalues:
       0.167  0.167  0.167
     eigenvectors (columns):
       1.000  0.000  0.000
       0.000  1.000  0.000
       0.000  0.000  1.000
     occupation matrix ns (before diag.):
       0.167  0.000  0.000
       0.000  0.167  0.000
       0.000  0.000  0.167
     ------------------------ ATOM   10 ------------------------
     Tr[ns( 10)] =   1.00000
     eigenvalues:
       0.167  0.167  0.167
     eigenvectors (columns):
       1.000  0.000  0.000
       0.000  1.000  0.000
       0.000  0.000  1.000
     occupation matrix ns (before diag.):
       0.167  0.000  0.000
       0.000  0.167  0.000
       0.000  0.000  0.167
     ------------------------ ATOM   11 ------------------------
     Tr[ns( 11)] =   1.00000
     eigenvalues:
       0.167  0.167  0.167
     eigenvectors (columns):
       1.000  0.000  0.000
       0.000  1.000  0.000
       0.000  0.000  1.000
     occupation matrix ns (before diag.):
       0.167  0.000  0.000
       0.000  0.167  0.000
       0.000  0.000  0.167
     ------------------------ ATOM   12 ------------------------
     Tr[ns( 12)] =   1.00000
     eigenvalues:
       0.167  0.167  0.167
     eigenvectors (columns):
       1.000  0.000  0.000
       0.000  1.000  0.000
       0.000  0.000  1.000
     occupation matrix ns (before diag.):
       0.167  0.000  0.000
       0.000  0.167  0.000
       0.000  0.000  0.167
     ------------------------ ATOM   13 ------------------------
     Tr[ns( 13)] =   3.00000
     eigenvalues:
       0.500  0.500  0.500
     eigenvectors (columns):
       1.000  0.000  0.000
       0.000  1.000  0.000
       0.000  0.000  1.000
     occupation matrix ns (before diag.):
       0.500  0.000  0.000
       0.000  0.500  0.000
       0.000  0.000  0.500
     ------------------------ ATOM   14 ------------------------
     Tr[ns( 14)] =   3.00000
     eigenvalues:
       0.500  0.500  0.500
     eigenvectors (columns):
       1.000  0.000  0.000
       0.000  1.000  0.000
       0.000  0.000  1.000
     occupation matrix ns (before diag.):
       0.500  0.000  0.000
       0.000  0.500  0.000
       0.000  0.000  0.500
     ------------------------ ATOM   15 ------------------------
     Tr[ns( 15)] =   3.00000
     eigenvalues:
       0.500  0.500  0.500
     eigenvectors (columns):
       1.000  0.000  0.000
       0.000  1.000  0.000
       0.000  0.000  1.000
     occupation matrix ns (before diag.):
       0.500  0.000  0.000
       0.000  0.500  0.000
       0.000  0.000  0.500
     ------------------------ ATOM   16 ------------------------
     Tr[ns( 16)] =   3.00000
     eigenvalues:
       0.500  0.500  0.500
     eigenvectors (columns):
       1.000  0.000  0.000
       0.000  1.000  0.000
       0.000  0.000  1.000
     occupation matrix ns (before diag.):
       0.500  0.000  0.000
       0.000  0.500  0.000
       0.000  0.000  0.500
     ------------------------ ATOM   17 ------------------------
     Tr[ns( 17)] =   1.00000
     eigenvalues:
       0.167  0.167  0.167
     eigenvectors (columns):
       1.000  0.000  0.000
       0.000  1.000  0.000
       0.000  0.000  1.000
     occupation matrix ns (before diag.):
       0.167  0.000  0.000
       0.000  0.167  0.000
       0.000  0.000  0.167
     ------------------------ ATOM   18 ------------------------
     Tr[ns( 18)] =   1.00000
     eigenvalues:
       0.167  0.167  0.167
     eigenvectors (columns):
       1.000  0.000  0.000
       0.000  1.000  0.000
       0.000  0.000  1.000
     occupation matrix ns (before diag.):
       0.167  0.000  0.000
       0.000  0.167  0.000
       0.000  0.000  0.167
     ------------------------ ATOM   19 ------------------------
     Tr[ns( 19)] =   1.00000
     eigenvalues:
       0.167  0.167  0.167
     eigenvectors (columns):
       1.000  0.000  0.000
       0.000  1.000  0.000
       0.000  0.000  1.000
     occupation matrix ns (before diag.):
       0.167  0.000  0.000
       0.000  0.167  0.000
       0.000  0.000  0.167
     ------------------------ ATOM   20 ------------------------
     Tr[ns( 20)] =   1.00000
     eigenvalues:
       0.167  0.167  0.167
     eigenvectors (columns):
       1.000  0.000  0.000
       0.000  1.000  0.000
       0.000  0.000  1.000
     occupation matrix ns (before diag.):
       0.167  0.000  0.000
       0.000  0.167  0.000
       0.000  0.000  0.167
     ------------------------ ATOM   21 ------------------------
     Tr[ns( 21)] =   3.00000
     eigenvalues:
       0.500  0.500  0.500
     eigenvectors (columns):
       1.000  0.000  0.000
       0.000  1.000  0.000
       0.000  0.000  1.000
     occupation matrix ns (before diag.):
       0.500  0.000  0.000
       0.000  0.500  0.000
       0.000  0.000  0.500
     ------------------------ ATOM   22 ------------------------
     Tr[ns( 22)] =   3.00000
     eigenvalues:
       0.500  0.500  0.500
     eigenvectors (columns):
       1.000  0.000  0.000
       0.000  1.000  0.000
       0.000  0.000  1.000
     occupation matrix ns (before diag.):
       0.500  0.000  0.000
       0.000  0.500  0.000
       0.000  0.000  0.500
     ------------------------ ATOM   23 ------------------------
     Tr[ns( 23)] =   3.00000
     eigenvalues:
       0.500  0.500  0.500
     eigenvectors (columns):
       1.000  0.000  0.000
       0.000  1.000  0.000
       0.000  0.000  1.000
     occupation matrix ns (before diag.):
       0.500  0.000  0.000
       0.000  0.500  0.000
       0.000  0.000  0.500
     ------------------------ ATOM   24 ------------------------
     Tr[ns( 24)] =   3.00000
     eigenvalues:
       0.500  0.500  0.500
     eigenvectors (columns):
       1.000  0.000  0.000
       0.000  1.000  0.000
       0.000  0.000  1.000
     occupation matrix ns (before diag.):
       0.500  0.000  0.000
       0.000  0.500  0.000
       0.000  0.000  0.500
     ------------------------ ATOM   25 ------------------------
     Tr[ns( 25)] =   1.00000
     eigenvalues:
       0.167  0.167  0.167
     eigenvectors (columns):
       1.000  0.000  0.000
       0.000  1.000  0.000
       0.000  0.000  1.000
     occupation matrix ns (before diag.):
       0.167  0.000  0.000
       0.000  0.167  0.000
       0.000  0.000  0.167
     ------------------------ ATOM   26 ------------------------
     Tr[ns( 26)] =   1.00000
     eigenvalues:
       0.167  0.167  0.167
     eigenvectors (columns):
       1.000  0.000  0.000
       0.000  1.000  0.000
       0.000  0.000  1.000
     occupation matrix ns (before diag.):
       0.167  0.000  0.000
       0.000  0.167  0.000
       0.000  0.000  0.167
     ------------------------ ATOM   27 ------------------------
     Tr[ns( 27)] =   1.00000
     eigenvalues:
       0.167  0.167  0.167
     eigenvectors (columns):
       1.000  0.000  0.000
       0.000  1.000  0.000
       0.000  0.000  1.000
     occupation matrix ns (before diag.):
       0.167  0.000  0.000
       0.000  0.167  0.000
       0.000  0.000  0.167
     ------------------------ ATOM   28 ------------------------
     Tr[ns( 28)] =   1.00000
     eigenvalues:
       0.167  0.167  0.167
     eigenvectors (columns):
       1.000  0.000  0.000
       0.000  1.000  0.000
       0.000  0.000  1.000
     occupation matrix ns (before diag.):
       0.167  0.000  0.000
       0.000  0.167  0.000
       0.000  0.000  0.167
     ------------------------ ATOM   29 ------------------------
     Tr[ns( 29)] =   3.00000
     eigenvalues:
       0.500  0.500  0.500
     eigenvectors (columns):
       1.000  0.000  0.000
       0.000  1.000  0.000
       0.000  0.000  1.000
     occupation matrix ns (before diag.):
       0.500  0.000  0.000
       0.000  0.500  0.000
       0.000  0.000  0.500
     ------------------------ ATOM   30 ------------------------
     Tr[ns( 30)] =   3.00000
     eigenvalues:
       0.500  0.500  0.500
     eigenvectors (columns):
       1.000  0.000  0.000
       0.000  1.000  0.000
       0.000  0.000  1.000
     occupation matrix ns (before diag.):
       0.500  0.000  0.000
       0.000  0.500  0.000
       0.000  0.000  0.500
     ------------------------ ATOM   31 ------------------------
     Tr[ns( 31)] =   3.00000
     eigenvalues:
       0.500  0.500  0.500
     eigenvectors (columns):
       1.000  0.000  0.000
       0.000  1.000  0.000
       0.000  0.000  1.000
     occupation matrix ns (before diag.):
       0.500  0.000  0.000
       0.000  0.500  0.000
       0.000  0.000  0.500
     ------------------------ ATOM   32 ------------------------
     Tr[ns( 32)] =   3.00000
     eigenvalues:
       0.500  0.500  0.500
     eigenvectors (columns):
       1.000  0.000  0.000
       0.000  1.000  0.000
       0.000  0.000  1.000
     occupation matrix ns (before diag.):
       0.500  0.000  0.000
       0.000  0.500  0.000
       0.000  0.000  0.500
     ------------------------ ATOM   33 ------------------------
     Tr[ns( 33)] =   1.00000
     eigenvalues:
       0.167  0.167  0.167
     eigenvectors (columns):
       1.000  0.000  0.000
       0.000  1.000  0.000
       0.000  0.000  1.000
     occupation matrix ns (before diag.):
       0.167  0.000  0.000
       0.000  0.167  0.000
       0.000  0.000  0.167
     ------------------------ ATOM   34 ------------------------
     Tr[ns( 34)] =   1.00000
     eigenvalues:
       0.167  0.167  0.167
     eigenvectors (columns):
       1.000  0.000  0.000
       0.000  1.000  0.000
       0.000  0.000  1.000
     occupation matrix ns (before diag.):
       0.167  0.000  0.000
       0.000  0.167  0.000
       0.000  0.000  0.167
     ------------------------ ATOM   35 ------------------------
     Tr[ns( 35)] =   1.00000
     eigenvalues:
       0.167  0.167  0.167
     eigenvectors (columns):
       1.000  0.000  0.000
       0.000  1.000  0.000
       0.000  0.000  1.000
     occupation matrix ns (before diag.):
       0.167  0.000  0.000
       0.000  0.167  0.000
       0.000  0.000  0.167
     ------------------------ ATOM   36 ------------------------
     Tr[ns( 36)] =   1.00000
     eigenvalues:
       0.167  0.167  0.167
     eigenvectors (columns):
       1.000  0.000  0.000
       0.000  1.000  0.000
       0.000  0.000  1.000
     occupation matrix ns (before diag.):
       0.167  0.000  0.000
       0.000  0.167  0.000
       0.000  0.000  0.167
     ------------------------ ATOM   37 ------------------------
     Tr[ns( 37)] =   3.00000
     eigenvalues:
       0.500  0.500  0.500
     eigenvectors (columns):
       1.000  0.000  0.000
       0.000  1.000  0.000
       0.000  0.000  1.000
     occupation matrix ns (before diag.):
       0.500  0.000  0.000
       0.000  0.500  0.000
       0.000  0.000  0.500
     ------------------------ ATOM   38 ------------------------
     Tr[ns( 38)] =   3.00000
     eigenvalues:
       0.500  0.500  0.500
     eigenvectors (columns):
       1.000  0.000  0.000
       0.000  1.000  0.000
       0.000  0.000  1.000
     occupation matrix ns (before diag.):
       0.500  0.000  0.000
       0.000  0.500  0.000
       0.000  0.000  0.500
     ------------------------ ATOM   39 ------------------------
     Tr[ns( 39)] =   3.00000
     eigenvalues:
       0.500  0.500  0.500
     eigenvectors (columns):
       1.000  0.000  0.000
       0.000  1.000  0.000
       0.000  0.000  1.000
     occupation matrix ns (before diag.):
       0.500  0.000  0.000
       0.000  0.500  0.000
       0.000  0.000  0.500
     ------------------------ ATOM   40 ------------------------
     Tr[ns( 40)] =   3.00000
     eigenvalues:
       0.500  0.500  0.500
     eigenvectors (columns):
       1.000  0.000  0.000
       0.000  1.000  0.000
       0.000  0.000  1.000
     occupation matrix ns (before diag.):
       0.500  0.000  0.000
       0.000  0.500  0.000
       0.000  0.000  0.500
     ------------------------ ATOM   41 ------------------------
     Tr[ns( 41)] =   1.00000
     eigenvalues:
       0.167  0.167  0.167
     eigenvectors (columns):
       1.000  0.000  0.000
       0.000  1.000  0.000
       0.000  0.000  1.000
     occupation matrix ns (before diag.):
       0.167  0.000  0.000
       0.000  0.167  0.000
       0.000  0.000  0.167
     ------------------------ ATOM   42 ------------------------
     Tr[ns( 42)] =   1.00000
     eigenvalues:
       0.167  0.167  0.167
     eigenvectors (columns):
       1.000  0.000  0.000
       0.000  1.000  0.000
       0.000  0.000  1.000
     occupation matrix ns (before diag.):
       0.167  0.000  0.000
       0.000  0.167  0.000
       0.000  0.000  0.167
     ------------------------ ATOM   43 ------------------------
     Tr[ns( 43)] =   1.00000
     eigenvalues:
       0.167  0.167  0.167
     eigenvectors (columns):
       1.000  0.000  0.000
       0.000  1.000  0.000
       0.000  0.000  1.000
     occupation matrix ns (before diag.):
       0.167  0.000  0.000
       0.000  0.167  0.000
       0.000  0.000  0.167
     ------------------------ ATOM   44 ------------------------
     Tr[ns( 44)] =   1.00000
     eigenvalues:
       0.167  0.167  0.167
     eigenvectors (columns):
       1.000  0.000  0.000
       0.000  1.000  0.000
       0.000  0.000  1.000
     occupation matrix ns (before diag.):
       0.167  0.000  0.000
       0.000  0.167  0.000
       0.000  0.000  0.167
     ------------------------ ATOM   45 ------------------------
     Tr[ns( 45)] =   3.00000
     eigenvalues:
       0.500  0.500  0.500
     eigenvectors (columns):
       1.000  0.000  0.000
       0.000  1.000  0.000
       0.000  0.000  1.000
     occupation matrix ns (before diag.):
       0.500  0.000  0.000
       0.000  0.500  0.000
       0.000  0.000  0.500
     ------------------------ ATOM   46 ------------------------
     Tr[ns( 46)] =   3.00000
     eigenvalues:
       0.500  0.500  0.500
     eigenvectors (columns):
       1.000  0.000  0.000
       0.000  1.000  0.000
       0.000  0.000  1.000
     occupation matrix ns (before diag.):
       0.500  0.000  0.000
       0.000  0.500  0.000
       0.000  0.000  0.500
     ------------------------ ATOM   47 ------------------------
     Tr[ns( 47)] =   3.00000
     eigenvalues:
       0.500  0.500  0.500
     eigenvectors (columns):
       1.000  0.000  0.000
       0.000  1.000  0.000
       0.000  0.000  1.000
     occupation matrix ns (before diag.):
       0.500  0.000  0.000
       0.000  0.500  0.000
       0.000  0.000  0.500
     ------------------------ ATOM   48 ------------------------
     Tr[ns( 48)] =   3.00000
     eigenvalues:
       0.500  0.500  0.500
     eigenvectors (columns):
       1.000  0.000  0.000
       0.000  1.000  0.000
       0.000  0.000  1.000
     occupation matrix ns (before diag.):
       0.500  0.000  0.000
       0.000  0.500  0.000
       0.000  0.000  0.500
     ------------------------ ATOM   49 ------------------------
     Tr[ns( 49)] =   1.00000
     eigenvalues:
       0.167  0.167  0.167
     eigenvectors (columns):
       1.000  0.000  0.000
       0.000  1.000  0.000
       0.000  0.000  1.000
     occupation matrix ns (before diag.):
       0.167  0.000  0.000
       0.000  0.167  0.000
       0.000  0.000  0.167
     ------------------------ ATOM   50 ------------------------
     Tr[ns( 50)] =   1.00000
     eigenvalues:
       0.167  0.167  0.167
     eigenvectors (columns):
       1.000  0.000  0.000
       0.000  1.000  0.000
       0.000  0.000  1.000
     occupation matrix ns (before diag.):
       0.167  0.000  0.000
       0.000  0.167  0.000
       0.000  0.000  0.167
     ------------------------ ATOM   51 ------------------------
     Tr[ns( 51)] =   1.00000
     eigenvalues:
       0.167  0.167  0.167
     eigenvectors (columns):
       1.000  0.000  0.000
       0.000  1.000  0.000
       0.000  0.000  1.000
     occupation matrix ns (before diag.):
       0.167  0.000  0.000
       0.000  0.167  0.000
       0.000  0.000  0.167
     ------------------------ ATOM   52 ------------------------
     Tr[ns( 52)] =   1.00000
     eigenvalues:
       0.167  0.167  0.167
     eigenvectors (columns):
       1.000  0.000  0.000
       0.000  1.000  0.000
       0.000  0.000  1.000
     occupation matrix ns (before diag.):
       0.167  0.000  0.000
       0.000  0.167  0.000
       0.000  0.000  0.167
     ------------------------ ATOM   53 ------------------------
     Tr[ns( 53)] =   3.00000
     eigenvalues:
       0.500  0.500  0.500
     eigenvectors (columns):
       1.000  0.000  0.000
       0.000  1.000  0.000
       0.000  0.000  1.000
     occupation matrix ns (before diag.):
       0.500  0.000  0.000
       0.000  0.500  0.000
       0.000  0.000  0.500
     ------------------------ ATOM   54 ------------------------
     Tr[ns( 54)] =   3.00000
     eigenvalues:
       0.500  0.500  0.500
     eigenvectors (columns):
       1.000  0.000  0.000
       0.000  1.000  0.000
       0.000  0.000  1.000
     occupation matrix ns (before diag.):
       0.500  0.000  0.000
       0.000  0.500  0.000
       0.000  0.000  0.500
     ------------------------ ATOM   55 ------------------------
     Tr[ns( 55)] =   3.00000
     eigenvalues:
       0.500  0.500  0.500
     eigenvectors (columns):
       1.000  0.000  0.000
       0.000  1.000  0.000
       0.000  0.000  1.000
     occupation matrix ns (before diag.):
       0.500  0.000  0.000
       0.000  0.500  0.000
       0.000  0.000  0.500
     ------------------------ ATOM   56 ------------------------
     Tr[ns( 56)] =   3.00000
     eigenvalues:
       0.500  0.500  0.500
     eigenvectors (columns):
       1.000  0.000  0.000
       0.000  1.000  0.000
       0.000  0.000  1.000
     occupation matrix ns (before diag.):
       0.500  0.000  0.000
       0.000  0.500  0.000
       0.000  0.000  0.500
     ------------------------ ATOM   57 ------------------------
     Tr[ns( 57)] =   1.00000
     eigenvalues:
       0.167  0.167  0.167
     eigenvectors (columns):
       1.000  0.000  0.000
       0.000  1.000  0.000
       0.000  0.000  1.000
     occupation matrix ns (before diag.):
       0.167  0.000  0.000
       0.000  0.167  0.000
       0.000  0.000  0.167
     ------------------------ ATOM   58 ------------------------
     Tr[ns( 58)] =   1.00000
     eigenvalues:
       0.167  0.167  0.167
     eigenvectors (columns):
       1.000  0.000  0.000
       0.000  1.000  0.000
       0.000  0.000  1.000
     occupation matrix ns (before diag.):
       0.167  0.000  0.000
       0.000  0.167  0.000
       0.000  0.000  0.167
     ------------------------ ATOM   59 ------------------------
     Tr[ns( 59)] =   1.00000
     eigenvalues:
       0.167  0.167  0.167
     eigenvectors (columns):
       1.000  0.000  0.000
       0.000  1.000  0.000
       0.000  0.000  1.000
     occupation matrix ns (before diag.):
       0.167  0.000  0.000
       0.000  0.167  0.000
       0.000  0.000  0.167
     ------------------------ ATOM   60 ------------------------
     Tr[ns( 60)] =   1.00000
     eigenvalues:
       0.167  0.167  0.167
     eigenvectors (columns):
       1.000  0.000  0.000
       0.000  1.000  0.000
       0.000  0.000  1.000
     occupation matrix ns (before diag.):
       0.167  0.000  0.000
       0.000  0.167  0.000
       0.000  0.000  0.167
     ------------------------ ATOM   61 ------------------------
     Tr[ns( 61)] =   3.00000
     eigenvalues:
       0.500  0.500  0.500
     eigenvectors (columns):
       1.000  0.000  0.000
       0.000  1.000  0.000
       0.000  0.000  1.000
     occupation matrix ns (before diag.):
       0.500  0.000  0.000
       0.000  0.500  0.000
       0.000  0.000  0.500
     ------------------------ ATOM   62 ------------------------
     Tr[ns( 62)] =   3.00000
     eigenvalues:
       0.500  0.500  0.500
     eigenvectors (columns):
       1.000  0.000  0.000
       0.000  1.000  0.000
       0.000  0.000  1.000
     occupation matrix ns (before diag.):
       0.500  0.000  0.000
       0.000  0.500  0.000
       0.000  0.000  0.500
     ------------------------ ATOM   63 ------------------------
     Tr[ns( 63)] =   3.00000
     eigenvalues:
       0.500  0.500  0.500
     eigenvectors (columns):
       1.000  0.000  0.000
       0.000  1.000  0.000
       0.000  0.000  1.000
     occupation matrix ns (before diag.):
       0.500  0.000  0.000
       0.000  0.500  0.000
       0.000  0.000  0.500
     ------------------------ ATOM   64 ------------------------
     Tr[ns( 64)] =   3.00000
     eigenvalues:
       0.500  0.500  0.500
     eigenvectors (columns):
       1.000  0.000  0.000
       0.000  1.000  0.000
       0.000  0.000  1.000
     occupation matrix ns (before diag.):
       0.500  0.000  0.000
       0.000  0.500  0.000
       0.000  0.000  0.500
     ------------------------ ATOM   65 ------------------------
     Tr[ns( 65)] =   1.00000
     eigenvalues:
       0.167  0.167  0.167
     eigenvectors (columns):
       1.000  0.000  0.000
       0.000  1.000  0.000
       0.000  0.000  1.000
     occupation matrix ns (before diag.):
       0.167  0.000  0.000
       0.000  0.167  0.000
       0.000  0.000  0.167
     ------------------------ ATOM   66 ------------------------
     Tr[ns( 66)] =   1.00000
     eigenvalues:
       0.167  0.167  0.167
     eigenvectors (columns):
       1.000  0.000  0.000
       0.000  1.000  0.000
       0.000  0.000  1.000
     occupation matrix ns (before diag.):
       0.167  0.000  0.000
       0.000  0.167  0.000
       0.000  0.000  0.167
     ------------------------ ATOM   67 ------------------------
     Tr[ns( 67)] =   1.00000
     eigenvalues:
       0.167  0.167  0.167
     eigenvectors (columns):
       1.000  0.000  0.000
       0.000  1.000  0.000
       0.000  0.000  1.000
     occupation matrix ns (before diag.):
       0.167  0.000  0.000
       0.000  0.167  0.000
       0.000  0.000  0.167
     ------------------------ ATOM   68 ------------------------
     Tr[ns( 68)] =   1.00000
     eigenvalues:
       0.167  0.167  0.167
     eigenvectors (columns):
       1.000  0.000  0.000
       0.000  1.000  0.000
       0.000  0.000  1.000
     occupation matrix ns (before diag.):
       0.167  0.000  0.000
       0.000  0.167  0.000
       0.000  0.000  0.167
     ------------------------ ATOM   69 ------------------------
     Tr[ns( 69)] =   3.00000
     eigenvalues:
       0.500  0.500  0.500
     eigenvectors (columns):
       1.000  0.000  0.000
       0.000  1.000  0.000
       0.000  0.000  1.000
     occupation matrix ns (before diag.):
       0.500  0.000  0.000
       0.000  0.500  0.000
       0.000  0.000  0.500
     ------------------------ ATOM   70 ------------------------
     Tr[ns( 70)] =   3.00000
     eigenvalues:
       0.500  0.500  0.500
     eigenvectors (columns):
       1.000  0.000  0.000
       0.000  1.000  0.000
       0.000  0.000  1.000
     occupation matrix ns (before diag.):
       0.500  0.000  0.000
       0.000  0.500  0.000
       0.000  0.000  0.500
     ------------------------ ATOM   71 ------------------------
     Tr[ns( 71)] =   3.00000
     eigenvalues:
       0.500  0.500  0.500
     eigenvectors (columns):
       1.000  0.000  0.000
       0.000  1.000  0.000
       0.000  0.000  1.000
     occupation matrix ns (before diag.):
       0.500  0.000  0.000
       0.000  0.500  0.000
       0.000  0.000  0.500
     ------------------------ ATOM   72 ------------------------
     Tr[ns( 72)] =   3.00000
     eigenvalues:
       0.500  0.500  0.500
     eigenvectors (columns):
       1.000  0.000  0.000
       0.000  1.000  0.000
       0.000  0.000  1.000
     occupation matrix ns (before diag.):
       0.500  0.000  0.000
       0.000  0.500  0.000
       0.000  0.000  0.500
     ------------------------ ATOM   73 ------------------------
     Tr[ns( 73)] =   1.00000
     eigenvalues:
       0.167  0.167  0.167
     eigenvectors (columns):
       1.000  0.000  0.000
       0.000  1.000  0.000
       0.000  0.000  1.000
     occupation matrix ns (before diag.):
       0.167  0.000  0.000
       0.000  0.167  0.000
       0.000  0.000  0.167
     ------------------------ ATOM   74 ------------------------
     Tr[ns( 74)] =   1.00000
     eigenvalues:
       0.167  0.167  0.167
     eigenvectors (columns):
       1.000  0.000  0.000
       0.000  1.000  0.000
       0.000  0.000  1.000
     occupation matrix ns (before diag.):
       0.167  0.000  0.000
       0.000  0.167  0.000
       0.000  0.000  0.167
     ------------------------ ATOM   75 ------------------------
     Tr[ns( 75)] =   1.00000
     eigenvalues:
       0.167  0.167  0.167
     eigenvectors (columns):
       1.000  0.000  0.000
       0.000  1.000  0.000
       0.000  0.000  1.000
     occupation matrix ns (before diag.):
       0.167  0.000  0.000
       0.000  0.167  0.000
       0.000  0.000  0.167
     ------------------------ ATOM   76 ------------------------
     Tr[ns( 76)] =   1.00000
     eigenvalues:
       0.167  0.167  0.167
     eigenvectors (columns):
       1.000  0.000  0.000
       0.000  1.000  0.000
       0.000  0.000  1.000
     occupation matrix ns (before diag.):
       0.167  0.000  0.000
       0.000  0.167  0.000
       0.000  0.000  0.167
     ------------------------ ATOM   77 ------------------------
     Tr[ns( 77)] =   3.00000
     eigenvalues:
       0.500  0.500  0.500
     eigenvectors (columns):
       1.000  0.000  0.000
       0.000  1.000  0.000
       0.000  0.000  1.000
     occupation matrix ns (before diag.):
       0.500  0.000  0.000
       0.000  0.500  0.000
       0.000  0.000  0.500
     ------------------------ ATOM   78 ------------------------
     Tr[ns( 78)] =   3.00000
     eigenvalues:
       0.500  0.500  0.500
     eigenvectors (columns):
       1.000  0.000  0.000
       0.000  1.000  0.000
       0.000  0.000  1.000
     occupation matrix ns (before diag.):
       0.500  0.000  0.000
       0.000  0.500  0.000
       0.000  0.000  0.500
     ------------------------ ATOM   79 ------------------------
     Tr[ns( 79)] =   3.00000
     eigenvalues:
       0.500  0.500  0.500
     eigenvectors (columns):
       1.000  0.000  0.000
       0.000  1.000  0.000
       0.000  0.000  1.000
     occupation matrix ns (before diag.):
       0.500  0.000  0.000
       0.000  0.500  0.000
       0.000  0.000  0.500
     ------------------------ ATOM   80 ------------------------
     Tr[ns( 80)] =   3.00000
     eigenvalues:
       0.500  0.500  0.500
     eigenvectors (columns):
       1.000  0.000  0.000
       0.000  1.000  0.000
       0.000  0.000  1.000
     occupation matrix ns (before diag.):
       0.500  0.000  0.000
       0.000  0.500  0.000
       0.000  0.000  0.500
     ------------------------ ATOM   81 ------------------------
     Tr[ns( 81)] =   1.00000
     eigenvalues:
       0.167  0.167  0.167
     eigenvectors (columns):
       1.000  0.000  0.000
       0.000  1.000  0.000
       0.000  0.000  1.000
     occupation matrix ns (before diag.):
       0.167  0.000  0.000
       0.000  0.167  0.000
       0.000  0.000  0.167
     ------------------------ ATOM   82 ------------------------
     Tr[ns( 82)] =   1.00000
     eigenvalues:
       0.167  0.167  0.167
     eigenvectors (columns):
       1.000  0.000  0.000
       0.000  1.000  0.000
       0.000  0.000  1.000
     occupation matrix ns (before diag.):
       0.167  0.000  0.000
       0.000  0.167  0.000
       0.000  0.000  0.167
     ------------------------ ATOM   83 ------------------------
     Tr[ns( 83)] =   1.00000
     eigenvalues:
       0.167  0.167  0.167
     eigenvectors (columns):
       1.000  0.000  0.000
       0.000  1.000  0.000
       0.000  0.000  1.000
     occupation matrix ns (before diag.):
       0.167  0.000  0.000
       0.000  0.167  0.000
       0.000  0.000  0.167
     ------------------------ ATOM   84 ------------------------
     Tr[ns( 84)] =   1.00000
     eigenvalues:
       0.167  0.167  0.167
     eigenvectors (columns):
       1.000  0.000  0.000
       0.000  1.000  0.000
       0.000  0.000  1.000
     occupation matrix ns (before diag.):
       0.167  0.000  0.000
       0.000  0.167  0.000
       0.000  0.000  0.167
     ------------------------ ATOM   85 ------------------------
     Tr[ns( 85)] =   3.00000
     eigenvalues:
       0.500  0.500  0.500
     eigenvectors (columns):
       1.000  0.000  0.000
       0.000  1.000  0.000
       0.000  0.000  1.000
     occupation matrix ns (before diag.):
       0.500  0.000  0.000
       0.000  0.500  0.000
       0.000  0.000  0.500
     ------------------------ ATOM   86 ------------------------
     Tr[ns( 86)] =   3.00000
     eigenvalues:
       0.500  0.500  0.500
     eigenvectors (columns):
       1.000  0.000  0.000
       0.000  1.000  0.000
       0.000  0.000  1.000
     occupation matrix ns (before diag.):
       0.500  0.000  0.000
       0.000  0.500  0.000
       0.000  0.000  0.500
     ------------------------ ATOM   87 ------------------------
     Tr[ns( 87)] =   3.00000
     eigenvalues:
       0.500  0.500  0.500
     eigenvectors (columns):
       1.000  0.000  0.000
       0.000  1.000  0.000
       0.000  0.000  1.000
     occupation matrix ns (before diag.):
       0.500  0.000  0.000
       0.000  0.500  0.000
       0.000  0.000  0.500
     ------------------------ ATOM   88 ------------------------
     Tr[ns( 88)] =   3.00000
     eigenvalues:
       0.500  0.500  0.500
     eigenvectors (columns):
       1.000  0.000  0.000
       0.000  1.000  0.000
       0.000  0.000  1.000
     occupation matrix ns (before diag.):
       0.500  0.000  0.000
       0.000  0.500  0.000
       0.000  0.000  0.500
     ------------------------ ATOM   89 ------------------------
     Tr[ns( 89)] =   1.00000
     eigenvalues:
       0.167  0.167  0.167
     eigenvectors (columns):
       1.000  0.000  0.000
       0.000  1.000  0.000
       0.000  0.000  1.000
     occupation matrix ns (before diag.):
       0.167  0.000  0.000
       0.000  0.167  0.000
       0.000  0.000  0.167
     ------------------------ ATOM   90 ------------------------
     Tr[ns( 90)] =   1.00000
     eigenvalues:
       0.167  0.167  0.167
     eigenvectors (columns):
       1.000  0.000  0.000
       0.000  1.000  0.000
       0.000  0.000  1.000
     occupation matrix ns (before diag.):
       0.167  0.000  0.000
       0.000  0.167  0.000
       0.000  0.000  0.167
     ------------------------ ATOM   91 ------------------------
     Tr[ns( 91)] =   1.00000
     eigenvalues:
       0.167  0.167  0.167
     eigenvectors (columns):
       1.000  0.000  0.000
       0.000  1.000  0.000
       0.000  0.000  1.000
     occupation matrix ns (before diag.):
       0.167  0.000  0.000
       0.000  0.167  0.000
       0.000  0.000  0.167
     ------------------------ ATOM   92 ------------------------
     Tr[ns( 92)] =   1.00000
     eigenvalues:
       0.167  0.167  0.167
     eigenvectors (columns):
       1.000  0.000  0.000
       0.000  1.000  0.000
       0.000  0.000  1.000
     occupation matrix ns (before diag.):
       0.167  0.000  0.000
       0.000  0.167  0.000
       0.000  0.000  0.167
     ------------------------ ATOM   93 ------------------------
     Tr[ns( 93)] =   3.00000
     eigenvalues:
       0.500  0.500  0.500
     eigenvectors (columns):
       1.000  0.000  0.000
       0.000  1.000  0.000
       0.000  0.000  1.000
     occupation matrix ns (before diag.):
       0.500  0.000  0.000
       0.000  0.500  0.000
       0.000  0.000  0.500
     ------------------------ ATOM   94 ------------------------
     Tr[ns( 94)] =   3.00000
     eigenvalues:
       0.500  0.500  0.500
     eigenvectors (columns):
       1.000  0.000  0.000
       0.000  1.000  0.000
       0.000  0.000  1.000
     occupation matrix ns (before diag.):
       0.500  0.000  0.000
       0.000  0.500  0.000
       0.000  0.000  0.500
     ------------------------ ATOM   95 ------------------------
     Tr[ns( 95)] =   3.00000
     eigenvalues:
       0.500  0.500  0.500
     eigenvectors (columns):
       1.000  0.000  0.000
       0.000  1.000  0.000
       0.000  0.000  1.000
     occupation matrix ns (before diag.):
       0.500  0.000  0.000
       0.000  0.500  0.000
       0.000  0.000  0.500
     ------------------------ ATOM   96 ------------------------
     Tr[ns( 96)] =   3.00000
     eigenvalues:
       0.500  0.500  0.500
     eigenvectors (columns):
       1.000  0.000  0.000
       0.000  1.000  0.000
       0.000  0.000  1.000
     occupation matrix ns (before diag.):
       0.500  0.000  0.000
       0.000  0.500  0.000
       0.000  0.000  0.500
     ------------------------ ATOM   97 ------------------------
     Tr[ns( 97)] =   1.00000
     eigenvalues:
       0.167  0.167  0.167
     eigenvectors (columns):
       1.000  0.000  0.000
       0.000  1.000  0.000
       0.000  0.000  1.000
     occupation matrix ns (before diag.):
       0.167  0.000  0.000
       0.000  0.167  0.000
       0.000  0.000  0.167
     ------------------------ ATOM   98 ------------------------
     Tr[ns( 98)] =   1.00000
     eigenvalues:
       0.167  0.167  0.167
     eigenvectors (columns):
       1.000  0.000  0.000
       0.000  1.000  0.000
       0.000  0.000  1.000
     occupation matrix ns (before diag.):
       0.167  0.000  0.000
       0.000  0.167  0.000
       0.000  0.000  0.167
     ------------------------ ATOM   99 ------------------------
     Tr[ns( 99)] =   1.00000
     eigenvalues:
       0.167  0.167  0.167
     eigenvectors (columns):
       1.000  0.000  0.000
       0.000  1.000  0.000
       0.000  0.000  1.000
     occupation matrix ns (before diag.):
       0.167  0.000  0.000
       0.000  0.167  0.000
       0.000  0.000  0.167
     ------------------------ ATOM  100 ------------------------
     Tr[ns(100)] =   1.00000
     eigenvalues:
       0.167  0.167  0.167
     eigenvectors (columns):
       1.000  0.000  0.000
       0.000  1.000  0.000
       0.000  0.000  1.000
     occupation matrix ns (before diag.):
       0.167  0.000  0.000
       0.000  0.167  0.000
       0.000  0.000  0.167
     ------------------------ ATOM  101 ------------------------
     Tr[ns(101)] =   3.00000
     eigenvalues:
       0.500  0.500  0.500
     eigenvectors (columns):
       1.000  0.000  0.000
       0.000  1.000  0.000
       0.000  0.000  1.000
     occupation matrix ns (before diag.):
       0.500  0.000  0.000
       0.000  0.500  0.000
       0.000  0.000  0.500
     ------------------------ ATOM  102 ------------------------
     Tr[ns(102)] =   3.00000
     eigenvalues:
       0.500  0.500  0.500
     eigenvectors (columns):
       1.000  0.000  0.000
       0.000  1.000  0.000
       0.000  0.000  1.000
     occupation matrix ns (before diag.):
       0.500  0.000  0.000
       0.000  0.500  0.000
       0.000  0.000  0.500
     ------------------------ ATOM  103 ------------------------
     Tr[ns(103)] =   3.00000
     eigenvalues:
       0.500  0.500  0.500
     eigenvectors (columns):
       1.000  0.000  0.000
       0.000  1.000  0.000
       0.000  0.000  1.000
     occupation matrix ns (before diag.):
       0.500  0.000  0.000
       0.000  0.500  0.000
       0.000  0.000  0.500
     ------------------------ ATOM  104 ------------------------
     Tr[ns(104)] =   3.00000
     eigenvalues:
       0.500  0.500  0.500
     eigenvectors (columns):
       1.000  0.000  0.000
       0.000  1.000  0.000
       0.000  0.000  1.000
     occupation matrix ns (before diag.):
       0.500  0.000  0.000
       0.000  0.500  0.000
       0.000  0.000  0.500
     ------------------------ ATOM  105 ------------------------
     Tr[ns(105)] =   1.00000
     eigenvalues:
       0.167  0.167  0.167
     eigenvectors (columns):
       1.000  0.000  0.000
       0.000  1.000  0.000
       0.000  0.000  1.000
     occupation matrix ns (before diag.):
       0.167  0.000  0.000
       0.000  0.167  0.000
       0.000  0.000  0.167
     ------------------------ ATOM  106 ------------------------
     Tr[ns(106)] =   1.00000
     eigenvalues:
       0.167  0.167  0.167
     eigenvectors (columns):
       1.000  0.000  0.000
       0.000  1.000  0.000
       0.000  0.000  1.000
     occupation matrix ns (before diag.):
       0.167  0.000  0.000
       0.000  0.167  0.000
       0.000  0.000  0.167
     ------------------------ ATOM  107 ------------------------
     Tr[ns(107)] =   1.00000
     eigenvalues:
       0.167  0.167  0.167
     eigenvectors (columns):
       1.000  0.000  0.000
       0.000  1.000  0.000
       0.000  0.000  1.000
     occupation matrix ns (before diag.):
       0.167  0.000  0.000
       0.000  0.167  0.000
       0.000  0.000  0.167
     ------------------------ ATOM  108 ------------------------
     Tr[ns(108)] =   1.00000
     eigenvalues:
       0.167  0.167  0.167
     eigenvectors (columns):
       1.000  0.000  0.000
       0.000  1.000  0.000
       0.000  0.000  1.000
     occupation matrix ns (before diag.):
       0.167  0.000  0.000
       0.000  0.167  0.000
       0.000  0.000  0.167
     ------------------------ ATOM  109 ------------------------
     Tr[ns(109)] =   3.00000
     eigenvalues:
       0.500  0.500  0.500
     eigenvectors (columns):
       1.000  0.000  0.000
       0.000  1.000  0.000
       0.000  0.000  1.000
     occupation matrix ns (before diag.):
       0.500  0.000  0.000
       0.000  0.500  0.000
       0.000  0.000  0.500
     ------------------------ ATOM  110 ------------------------
     Tr[ns(110)] =   3.00000
     eigenvalues:
       0.500  0.500  0.500
     eigenvectors (columns):
       1.000  0.000  0.000
       0.000  1.000  0.000
       0.000  0.000  1.000
     occupation matrix ns (before diag.):
       0.500  0.000  0.000
       0.000  0.500  0.000
       0.000  0.000  0.500
     ------------------------ ATOM  111 ------------------------
     Tr[ns(111)] =   3.00000
     eigenvalues:
       0.500  0.500  0.500
     eigenvectors (columns):
       1.000  0.000  0.000
       0.000  1.000  0.000
       0.000  0.000  1.000
     occupation matrix ns (before diag.):
       0.500  0.000  0.000
       0.000  0.500  0.000
       0.000  0.000  0.500
     ------------------------ ATOM  112 ------------------------
     Tr[ns(112)] =   3.00000
     eigenvalues:
       0.500  0.500  0.500
     eigenvectors (columns):
       1.000  0.000  0.000
       0.000  1.000  0.000
       0.000  0.000  1.000
     occupation matrix ns (before diag.):
       0.500  0.000  0.000
       0.000  0.500  0.000
       0.000  0.000  0.500
     ------------------------ ATOM  113 ------------------------
     Tr[ns(113)] =   1.00000
     eigenvalues:
       0.167  0.167  0.167
     eigenvectors (columns):
       1.000  0.000  0.000
       0.000  1.000  0.000
       0.000  0.000  1.000
     occupation matrix ns (before diag.):
       0.167  0.000  0.000
       0.000  0.167  0.000
       0.000  0.000  0.167
     ------------------------ ATOM  114 ------------------------
     Tr[ns(114)] =   1.00000
     eigenvalues:
       0.167  0.167  0.167
     eigenvectors (columns):
       1.000  0.000  0.000
       0.000  1.000  0.000
       0.000  0.000  1.000
     occupation matrix ns (before diag.):
       0.167  0.000  0.000
       0.000  0.167  0.000
       0.000  0.000  0.167
     ------------------------ ATOM  115 ------------------------
     Tr[ns(115)] =   1.00000
     eigenvalues:
       0.167  0.167  0.167
     eigenvectors (columns):
       1.000  0.000  0.000
       0.000  1.000  0.000
       0.000  0.000  1.000
     occupation matrix ns (before diag.):
       0.167  0.000  0.000
       0.000  0.167  0.000
       0.000  0.000  0.167
     ------------------------ ATOM  116 ------------------------
     Tr[ns(116)] =   1.00000
     eigenvalues:
       0.167  0.167  0.167
     eigenvectors (columns):
       1.000  0.000  0.000
       0.000  1.000  0.000
       0.000  0.000  1.000
     occupation matrix ns (before diag.):
       0.167  0.000  0.000
       0.000  0.167  0.000
       0.000  0.000  0.167
     ------------------------ ATOM  117 ------------------------
     Tr[ns(117)] =   3.00000
     eigenvalues:
       0.500  0.500  0.500
     eigenvectors (columns):
       1.000  0.000  0.000
       0.000  1.000  0.000
       0.000  0.000  1.000
     occupation matrix ns (before diag.):
       0.500  0.000  0.000
       0.000  0.500  0.000
       0.000  0.000  0.500
     ------------------------ ATOM  118 ------------------------
     Tr[ns(118)] =   3.00000
     eigenvalues:
       0.500  0.500  0.500
     eigenvectors (columns):
       1.000  0.000  0.000
       0.000  1.000  0.000
       0.000  0.000  1.000
     occupation matrix ns (before diag.):
       0.500  0.000  0.000
       0.000  0.500  0.000
       0.000  0.000  0.500
     ------------------------ ATOM  119 ------------------------
     Tr[ns(119)] =   3.00000
     eigenvalues:
       0.500  0.500  0.500
     eigenvectors (columns):
       1.000  0.000  0.000
       0.000  1.000  0.000
       0.000  0.000  1.000
     occupation matrix ns (before diag.):
       0.500  0.000  0.000
       0.000  0.500  0.000
       0.000  0.000  0.500
     ------------------------ ATOM  120 ------------------------
     Tr[ns(120)] =   3.00000
     eigenvalues:
       0.500  0.500  0.500
     eigenvectors (columns):
       1.000  0.000  0.000
       0.000  1.000  0.000
       0.000  0.000  1.000
     occupation matrix ns (before diag.):
       0.500  0.000  0.000
       0.000  0.500  0.000
       0.000  0.000  0.500
     ------------------------ ATOM  121 ------------------------
     Tr[ns(121)] =   1.00000
     eigenvalues:
       0.167  0.167  0.167
     eigenvectors (columns):
       1.000  0.000  0.000
       0.000  1.000  0.000
       0.000  0.000  1.000
     occupation matrix ns (before diag.):
       0.167  0.000  0.000
       0.000  0.167  0.000
       0.000  0.000  0.167
     ------------------------ ATOM  122 ------------------------
     Tr[ns(122)] =   1.00000
     eigenvalues:
       0.167  0.167  0.167
     eigenvectors (columns):
       1.000  0.000  0.000
       0.000  1.000  0.000
       0.000  0.000  1.000
     occupation matrix ns (before diag.):
       0.167  0.000  0.000
       0.000  0.167  0.000
       0.000  0.000  0.167
     ------------------------ ATOM  123 ------------------------
     Tr[ns(123)] =   1.00000
     eigenvalues:
       0.167  0.167  0.167
     eigenvectors (columns):
       1.000  0.000  0.000
       0.000  1.000  0.000
       0.000  0.000  1.000
     occupation matrix ns (before diag.):
       0.167  0.000  0.000
       0.000  0.167  0.000
       0.000  0.000  0.167
     ------------------------ ATOM  124 ------------------------
     Tr[ns(124)] =   1.00000
     eigenvalues:
       0.167  0.167  0.167
     eigenvectors (columns):
       1.000  0.000  0.000
       0.000  1.000  0.000
       0.000  0.000  1.000
     occupation matrix ns (before diag.):
       0.167  0.000  0.000
       0.000  0.167  0.000
       0.000  0.000  0.167
     ------------------------ ATOM  125 ------------------------
     Tr[ns(125)] =   3.00000
     eigenvalues:
       0.500  0.500  0.500
     eigenvectors (columns):
       1.000  0.000  0.000
       0.000  1.000  0.000
       0.000  0.000  1.000
     occupation matrix ns (before diag.):
       0.500  0.000  0.000
       0.000  0.500  0.000
       0.000  0.000  0.500
     ------------------------ ATOM  126 ------------------------
     Tr[ns(126)] =   3.00000
     eigenvalues:
       0.500  0.500  0.500
     eigenvectors (columns):
       1.000  0.000  0.000
       0.000  1.000  0.000
       0.000  0.000  1.000
     occupation matrix ns (before diag.):
       0.500  0.000  0.000
       0.000  0.500  0.000
       0.000  0.000  0.500
     ------------------------ ATOM  127 ------------------------
     Tr[ns(127)] =   3.00000
     eigenvalues:
       0.500  0.500  0.500
     eigenvectors (columns):
       1.000  0.000  0.000
       0.000  1.000  0.000
       0.000  0.000  1.000
     occupation matrix ns (before diag.):
       0.500  0.000  0.000
       0.000  0.500  0.000
       0.000  0.000  0.500
     ------------------------ ATOM  128 ------------------------
     Tr[ns(128)] =   3.00000
     eigenvalues:
       0.500  0.500  0.500
     eigenvectors (columns):
       1.000  0.000  0.000
       0.000  1.000  0.000
       0.000  0.000  1.000
     occupation matrix ns (before diag.):
       0.500  0.000  0.000
       0.000  0.500  0.000
       0.000  0.000  0.500
     ------------------------ ATOM  129 ------------------------
     Tr[ns(129)] =   1.00000
     eigenvalues:
       0.167  0.167  0.167
     eigenvectors (columns):
       1.000  0.000  0.000
       0.000  1.000  0.000
       0.000  0.000  1.000
     occupation matrix ns (before diag.):
       0.167  0.000  0.000
       0.000  0.167  0.000
       0.000  0.000  0.167
     ------------------------ ATOM  130 ------------------------
     Tr[ns(130)] =   1.00000
     eigenvalues:
       0.167  0.167  0.167
     eigenvectors (columns):
       1.000  0.000  0.000
       0.000  1.000  0.000
       0.000  0.000  1.000
     occupation matrix ns (before diag.):
       0.167  0.000  0.000
       0.000  0.167  0.000
       0.000  0.000  0.167
     ------------------------ ATOM  131 ------------------------
     Tr[ns(131)] =   1.00000
     eigenvalues:
       0.167  0.167  0.167
     eigenvectors (columns):
       1.000  0.000  0.000
       0.000  1.000  0.000
       0.000  0.000  1.000
     occupation matrix ns (before diag.):
       0.167  0.000  0.000
       0.000  0.167  0.000
       0.000  0.000  0.167
     ------------------------ ATOM  132 ------------------------
     Tr[ns(132)] =   1.00000
     eigenvalues:
       0.167  0.167  0.167
     eigenvectors (columns):
       1.000  0.000  0.000
       0.000  1.000  0.000
       0.000  0.000  1.000
     occupation matrix ns (before diag.):
       0.167  0.000  0.000
       0.000  0.167  0.000
       0.000  0.000  0.167
     ------------------------ ATOM  133 ------------------------
     Tr[ns(133)] =   3.00000
     eigenvalues:
       0.500  0.500  0.500
     eigenvectors (columns):
       1.000  0.000  0.000
       0.000  1.000  0.000
       0.000  0.000  1.000
     occupation matrix ns (before diag.):
       0.500  0.000  0.000
       0.000  0.500  0.000
       0.000  0.000  0.500
     ------------------------ ATOM  134 ------------------------
     Tr[ns(134)] =   3.00000
     eigenvalues:
       0.500  0.500  0.500
     eigenvectors (columns):
       1.000  0.000  0.000
       0.000  1.000  0.000
       0.000  0.000  1.000
     occupation matrix ns (before diag.):
       0.500  0.000  0.000
       0.000  0.500  0.000
       0.000  0.000  0.500
     ------------------------ ATOM  135 ------------------------
     Tr[ns(135)] =   3.00000
     eigenvalues:
       0.500  0.500  0.500
     eigenvectors (columns):
       1.000  0.000  0.000
       0.000  1.000  0.000
       0.000  0.000  1.000
     occupation matrix ns (before diag.):
       0.500  0.000  0.000
       0.000  0.500  0.000
       0.000  0.000  0.500
     ------------------------ ATOM  136 ------------------------
     Tr[ns(136)] =   3.00000
     eigenvalues:
       0.500  0.500  0.500
     eigenvectors (columns):
       1.000  0.000  0.000
       0.000  1.000  0.000
       0.000  0.000  1.000
     occupation matrix ns (before diag.):
       0.500  0.000  0.000
       0.000  0.500  0.000
       0.000  0.000  0.500
     ------------------------ ATOM  137 ------------------------
     Tr[ns(137)] =   1.00000
     eigenvalues:
       0.167  0.167  0.167
     eigenvectors (columns):
       1.000  0.000  0.000
       0.000  1.000  0.000
       0.000  0.000  1.000
     occupation matrix ns (before diag.):
       0.167  0.000  0.000
       0.000  0.167  0.000
       0.000  0.000  0.167
     ------------------------ ATOM  138 ------------------------
     Tr[ns(138)] =   1.00000
     eigenvalues:
       0.167  0.167  0.167
     eigenvectors (columns):
       1.000  0.000  0.000
       0.000  1.000  0.000
       0.000  0.000  1.000
     occupation matrix ns (before diag.):
       0.167  0.000  0.000
       0.000  0.167  0.000
       0.000  0.000  0.167
     ------------------------ ATOM  139 ------------------------
     Tr[ns(139)] =   1.00000
     eigenvalues:
       0.167  0.167  0.167
     eigenvectors (columns):
       1.000  0.000  0.000
       0.000  1.000  0.000
       0.000  0.000  1.000
     occupation matrix ns (before diag.):
       0.167  0.000  0.000
       0.000  0.167  0.000
       0.000  0.000  0.167
     ------------------------ ATOM  140 ------------------------
     Tr[ns(140)] =   1.00000
     eigenvalues:
       0.167  0.167  0.167
     eigenvectors (columns):
       1.000  0.000  0.000
       0.000  1.000  0.000
       0.000  0.000  1.000
     occupation matrix ns (before diag.):
       0.167  0.000  0.000
       0.000  0.167  0.000
       0.000  0.000  0.167
     ------------------------ ATOM  141 ------------------------
     Tr[ns(141)] =   3.00000
     eigenvalues:
       0.500  0.500  0.500
     eigenvectors (columns):
       1.000  0.000  0.000
       0.000  1.000  0.000
       0.000  0.000  1.000
     occupation matrix ns (before diag.):
       0.500  0.000  0.000
       0.000  0.500  0.000
       0.000  0.000  0.500
     ------------------------ ATOM  142 ------------------------
     Tr[ns(142)] =   3.00000
     eigenvalues:
       0.500  0.500  0.500
     eigenvectors (columns):
       1.000  0.000  0.000
       0.000  1.000  0.000
       0.000  0.000  1.000
     occupation matrix ns (before diag.):
       0.500  0.000  0.000
       0.000  0.500  0.000
       0.000  0.000  0.500
     ------------------------ ATOM  143 ------------------------
     Tr[ns(143)] =   3.00000
     eigenvalues:
       0.500  0.500  0.500
     eigenvectors (columns):
       1.000  0.000  0.000
       0.000  1.000  0.000
       0.000  0.000  1.000
     occupation matrix ns (before diag.):
       0.500  0.000  0.000
       0.000  0.500  0.000
       0.000  0.000  0.500
     ------------------------ ATOM  144 ------------------------
     Tr[ns(144)] =   3.00000
     eigenvalues:
       0.500  0.500  0.500
     eigenvectors (columns):
       1.000  0.000  0.000
       0.000  1.000  0.000
       0.000  0.000  1.000
     occupation matrix ns (before diag.):
       0.500  0.000  0.000
       0.000  0.500  0.000
       0.000  0.000  0.500
     ------------------------ ATOM  145 ------------------------
     Tr[ns(145)] =   1.00000
     eigenvalues:
       0.167  0.167  0.167
     eigenvectors (columns):
       1.000  0.000  0.000
       0.000  1.000  0.000
       0.000  0.000  1.000
     occupation matrix ns (before diag.):
       0.167  0.000  0.000
       0.000  0.167  0.000
       0.000  0.000  0.167
     ------------------------ ATOM  146 ------------------------
     Tr[ns(146)] =   1.00000
     eigenvalues:
       0.167  0.167  0.167
     eigenvectors (columns):
       1.000  0.000  0.000
       0.000  1.000  0.000
       0.000  0.000  1.000
     occupation matrix ns (before diag.):
       0.167  0.000  0.000
       0.000  0.167  0.000
       0.000  0.000  0.167
     ------------------------ ATOM  147 ------------------------
     Tr[ns(147)] =   1.00000
     eigenvalues:
       0.167  0.167  0.167
     eigenvectors (columns):
       1.000  0.000  0.000
       0.000  1.000  0.000
       0.000  0.000  1.000
     occupation matrix ns (before diag.):
       0.167  0.000  0.000
       0.000  0.167  0.000
       0.000  0.000  0.167
     ------------------------ ATOM  148 ------------------------
     Tr[ns(148)] =   1.00000
     eigenvalues:
       0.167  0.167  0.167
     eigenvectors (columns):
       1.000  0.000  0.000
       0.000  1.000  0.000
       0.000  0.000  1.000
     occupation matrix ns (before diag.):
       0.167  0.000  0.000
       0.000  0.167  0.000
       0.000  0.000  0.167
     ------------------------ ATOM  149 ------------------------
     Tr[ns(149)] =   3.00000
     eigenvalues:
       0.500  0.500  0.500
     eigenvectors (columns):
       1.000  0.000  0.000
       0.000  1.000  0.000
       0.000  0.000  1.000
     occupation matrix ns (before diag.):
       0.500  0.000  0.000
       0.000  0.500  0.000
       0.000  0.000  0.500
     ------------------------ ATOM  150 ------------------------
     Tr[ns(150)] =   3.00000
     eigenvalues:
       0.500  0.500  0.500
     eigenvectors (columns):
       1.000  0.000  0.000
       0.000  1.000  0.000
       0.000  0.000  1.000
     occupation matrix ns (before diag.):
       0.500  0.000  0.000
       0.000  0.500  0.000
       0.000  0.000  0.500
     ------------------------ ATOM  151 ------------------------
     Tr[ns(151)] =   3.00000
     eigenvalues:
       0.500  0.500  0.500
     eigenvectors (columns):
       1.000  0.000  0.000
       0.000  1.000  0.000
       0.000  0.000  1.000
     occupation matrix ns (before diag.):
       0.500  0.000  0.000
       0.000  0.500  0.000
       0.000  0.000  0.500
     ------------------------ ATOM  152 ------------------------
[...]
   -20.6087 -20.6085 -20.6085 -20.6085 -20.6083 -20.6083 -20.6082 -20.6081
   -20.6081 -20.6080 -20.6079 -20.6079 -20.6077 -20.6074 -20.6073 -20.6072
   -20.6072 -20.6071 -20.6071 -20.6069 -20.6068 -20.6066 -20.6066 -20.6065
   -20.6064 -20.6063 -20.6063 -20.6062 -20.6059 -20.6057 -20.6055 -20.6054
   -20.6054 -20.6053 -20.6052 -20.6052 -20.6051 -20.6050 -20.6050 -20.6049
   -20.6047 -20.6046 -20.6044 -20.6044 -20.6042 -20.6042 -20.6041 -20.6041
   -20.6039 -20.6038 -20.6038 -20.6037 -20.6037 -20.6035 -20.6034 -20.6034
   -20.6034 -20.6033 -20.6032 -20.6032 -20.6032 -20.6031 -20.6030 -20.6028
   -20.6026 -20.6026 -20.6023 -20.6022 -20.6018 -20.6017 -20.6013 -20.6012
   -20.6012 -20.6011 -20.6011 -20.6006 -20.6004 -20.6004 -20.6003 -20.6002
   -20.6002 -20.6000 -20.6000 -20.5999 -20.5996 -20.5995 -20.5994 -20.5994
   -20.5991 -20.5991 -20.5990 -20.5990 -20.5990 -20.5988 -20.5988 -20.5987
   -20.5986 -20.5983 -20.5983 -20.5983 -20.5982 -20.5980 -20.5979 -20.5976
   -20.5974 -20.5973 -20.5972 -20.5972 -20.5971 -20.5970 -20.5968 -20.5968
   -20.5965 -20.5964 -20.5962 -20.5961 -20.5961 -20.5959 -20.5957 -20.5957
   -20.5951 -20.5949 -20.5948 -20.5944 -20.5944 -20.5933 -20.5931 -20.5929
   -20.5928 -20.5927 -20.5927 -20.5926 -20.5926 -20.5925 -20.5925 -20.5924
   -20.5921 -20.5919 -20.5916 -20.5912 -20.5908 -20.5907 -20.5907 -20.5906
   -20.5906 -20.5906 -20.5900 -20.5900 -20.5897 -20.5895 -20.5894 -20.5893
   -20.5891 -20.5888 -20.5887 -20.5887 -20.5885 -20.5885 -20.5885 -20.5884
   -20.5882 -20.5882 -20.5878 -20.5876 -20.5875 -20.5873 -20.5873 -20.5865
   -20.5858 -20.5857 -20.5848 -20.5842 -20.5841 -20.5840 -20.5837 -20.5830
   -20.5826 -20.5824 -20.5824 -20.5822 -20.5820 -20.5816 -20.5798 -20.5796
   -20.5792 -20.5791 -20.5787 -20.5785 -20.5781 -20.5778 -20.5774 -20.5762
   -20.5756 -20.5753 -20.5751 -20.5747 -20.5743 -20.5717 -20.5699 -20.5698
   -20.5679 -20.5653 -20.5629 -20.5601  -7.5717  -7.5526  -7.5484  -7.5456
    -7.5442  -7.5427  -7.5405  -7.5392  -7.5365  -7.5347  -7.5325  -7.5321
    -7.5311  -7.5303  -7.5297  -7.5222  -7.5208  -7.5171  -7.5163  -7.5155
    -7.5133  -7.5123  -7.5084  -7.5028  -7.5027  -7.5015  -7.4999  -7.4987
    -7.4931  -7.4912  -7.4892  -7.4879  -7.4869  -7.4838  -7.4828  -7.4820
    -7.4809  -7.4805  -7.4797  -7.4788  -7.4775  -7.4774  -7.4767  -7.4761
    -7.4757  -7.4739  -7.4735  -7.4724  -7.4718  -7.4716  -7.4708  -7.4704
    -7.4697  -7.4691  -7.4681  -7.4677  -7.4668  -7.4660  -7.4652  -7.4648
    -7.4640  -7.4634  -7.4620  -7.4612  -7.4608  -7.4605  -7.4598  -7.4593
    -7.4586  -7.4585  -7.4580  -7.4568  -7.4560  -7.4554  -7.4553  -7.4547
    -7.4542  -7.4540  -7.4536  -7.4532  -7.4531  -7.4527  -7.4520  -7.4516
    -7.4512  -7.4510  -7.4502  -7.4500  -7.4494  -7.4489  -7.4487  -7.4481
    -7.4480  -7.4475  -7.4469  -7.4463  -7.4460  -7.4453  -7.4451  -7.4449
    -7.4436  -7.4433  -7.4422  -7.4420  -7.4415  -7.4412  -7.4411  -7.4402
    -7.4401  -7.4395  -7.4394  -7.4390  -7.4386  -7.4381  -7.4379  -7.4375
    -7.4368  -7.4365  -7.4362  -7.4358  -7.4354  -7.4346  -7.4343  -7.4339
    -7.4336  -7.4332  -7.4325  -7.4323  -7.4319  -7.4314  -7.4312  -7.4307
    -7.4305  -7.4300  -7.4297  -7.4293  -7.4292  -7.4285  -7.4282  -7.4279
    -7.4276  -7.4271  -7.4266  -7.4259  -7.4253  -7.4253  -7.4251  -7.4246
    -7.4241  -7.4241  -7.4236  -7.4232  -7.4229  -7.4220  -7.4218  -7.4215
    -7.4210  -7.4206  -7.4204  -7.4204  -7.4198  -7.4195  -7.4193  -7.4187
    -7.4186  -7.4181  -7.4178  -7.4173  -7.4169  -7.4164  -7.4161  -7.4158
    -7.4154  -7.4148  -7.4146  -7.4140  -7.4139  -7.4135  -7.4128  -7.4120
    -7.4119  -7.4112  -7.4110  -7.4107  -7.4100  -7.4099  -7.4097  -7.4092
    -7.4089  -7.4087  -7.4083  -7.4080  -7.4074  -7.4073  -7.4070  -7.4069
    -7.4059  -7.4057  -7.4053  -7.4050  -7.4048  -7.4044  -7.4044  -7.4041
    -7.4038  -7.4035  -7.4031  -7.4026  -7.4023  -7.4020  -7.4019  -7.4016
    -7.4012  -7.4007  -7.4004  -7.3998  -7.3997  -7.3994  -7.3992  -7.3987
    -7.3982  -7.3982  -7.3975  -7.3975  -7.3973  -7.3968  -7.3966  -7.3960
    -7.3957  -7.3955  -7.3952  -7.3949  -7.3945  -7.3942  -7.3939  -7.3937
    -7.3935  -7.3933  -7.3926  -7.3924  -7.3923  -7.3918  -7.3917  -7.3912
    -7.3909  -7.3906  -7.3903  -7.3902  -7.3898  -7.3896  -7.3891  -7.3889
    -7.3884  -7.3879  -7.3877  -7.3871  -7.3871  -7.3867  -7.3865  -7.3862
    -7.3861  -7.3858  -7.3856  -7.3854  -7.3851  -7.3849  -7.3845  -7.3844
    -7.3842  -7.3839  -7.3834  -7.3829  -7.3826  -7.3824  -7.3816  -7.3814
    -7.3814  -7.3812  -7.3807  -7.3804  -7.3802  -7.3796  -7.3794  -7.3790
    -7.3789  -7.3783  -7.3777  -7.3776  -7.3773  -7.3770  -7.3769  -7.3764
    -7.3759  -7.3758  -7.3754  -7.3750  -7.3748  -7.3746  -7.3742  -7.3737
    -7.3732  -7.3730  -7.3728  -7.3726  -7.3722  -7.3718  -7.3716  -7.3713
    -7.3711  -7.3707  -7.3706  -7.3704  -7.3702  -7.3696  -7.3693  -7.3691
    -7.3685  -7.3683  -7.3682  -7.3676  -7.3671  -7.3668  -7.3661  -7.3659
    -7.3656  -7.3654  -7.3652  -7.3649  -7.3646  -7.3641  -7.3637  -7.3635
    -7.3634  -7.3630  -7.3624  -7.3621  -7.3616  -7.3614  -7.3613  -7.3608
    -7.3602  -7.3600  -7.3598  -7.3592  -7.3589  -7.3586  -7.3584  -7.3580
    -7.3576  -7.3574  -7.3569  -7.3567  -7.3566  -7.3561  -7.3555  -7.3555
    -7.3549  -7.3548  -7.3539  -7.3537  -7.3534  -7.3532  -7.3530  -7.3527
    -7.3526  -7.3524  -7.3519  -7.3518  -7.3515  -7.3515  -7.3510  -7.3508
    -7.3503  -7.3501  -7.3496  -7.3492  -7.3488  -7.3485  -7.3485  -7.3480
    -7.3476  -7.3472  -7.3470  -7.3468  -7.3466  -7.3462  -7.3460  -7.3457
    -7.3451  -7.3445  -7.3444  -7.3443  -7.3441  -7.3439  -7.3434  -7.3432
    -7.3429  -7.3428  -7.3425  -7.3422  -7.3419  -7.3414  -7.3411  -7.3407
    -7.3404  -7.3401  -7.3395  -7.3392  -7.3388  -7.3385  -7.3381  -7.3377
    -7.3375  -7.3370  -7.3364  -7.3362  -7.3356  -7.3355  -7.3352  -7.3350
    -7.3344  -7.3343  -7.3341  -7.3338  -7.3335  -7.3330  -7.3325  -7.3322
    -7.3316  -7.3313  -7.3304  -7.3299  -7.3295  -7.3292  -7.3287  -7.3285
    -7.3283  -7.3276  -7.3272  -7.3270  -7.3267  -7.3260  -7.3257  -7.3254
    -7.3251  -7.3249  -7.3247  -7.3243  -7.3240  -7.3237  -7.3233  -7.3230
    -7.3223  -7.3222  -7.3219  -7.3217  -7.3213  -7.3210  -7.3209  -7.3206
    -7.3199  -7.3195  -7.3194  -7.3192  -7.3190  -7.3184  -7.3177  -7.3176
    -7.3169  -7.3164  -7.3163  -7.3155  -7.3150  -7.3146  -7.3145  -7.3143
    -7.3141  -7.3139  -7.3136  -7.3132  -7.3130  -7.3121  -7.3112  -7.3099
    -7.3096  -7.3085  -7.3082  -7.3077  -7.3076  -7.3073  -7.3070  -7.3060
    -7.3059  -7.3055  -7.3053  -7.3046  -7.3043  -7.3041  -7.3038  -7.3037
    -7.3032  -7.3030  -7.3028  -7.3020  -7.3014  -7.3010  -7.3001  -7.2998
    -7.2979  -7.2976  -7.2965  -7.2958  -7.2953  -7.2950  -7.2942  -7.2922
    -7.2912  -7.2899  -7.2892  -7.2885  -7.2874  -7.2868  -7.2854  -7.2845
    -7.2841  -7.2841  -7.2839  -7.2834  -7.2830  -7.2820  -7.2789  -7.2784
    -7.2782  -7.2777  -7.2776  -7.2770  -7.2767  -7.2755  -7.2742  -7.2706
    -3.5247  -3.4446  -3.3995  -3.3621  -3.3442  -3.2582  -3.1831  -3.1624
    -3.1461  -3.1401  -3.0998  -3.0928  -3.0242  -2.9924  -2.9710  -2.9526
    -2.9080  -2.8453  -2.8150  -2.8109  -2.7776  -2.7526  -2.7259  -2.6872
    -2.6532  -2.6163  -2.5885  -2.5721  -2.4772  -2.4566  -2.4401  -2.3440
    -2.3133  -2.3043  -2.2685  -2.2360  -2.2271  -2.1732  -2.1565  -2.1319
    -2.0978  -2.0745  -2.0363  -2.0111  -1.9988  -1.9715  -1.9574  -1.9316
    -1.9122  -1.8927  -1.8845  -1.8569  -1.8230  -1.8093  -1.7795  -1.7673
    -1.7271  -1.7081  -1.6892  -1.6774  -1.6570  -1.6516  -1.6422  -1.6086
    -1.5807  -1.5760  -1.5634  -1.5323  -1.5159  -1.4854  -1.4728  -1.4518
    -1.4310  -1.4045  -1.3840  -1.3600  -1.3538  -1.3287  -1.3232  -1.2949
    -1.2882  -1.2715  -1.2690  -1.2619  -1.2450  -1.2207  -1.2087  -1.1869
    -1.1830  -1.1575  -1.1521  -1.1323  -1.1239  -1.1163  -1.1107  -1.1077
    -1.0916  -1.0728  -1.0667  -1.0295  -1.0129  -1.0002  -0.9770  -0.9608
    -0.8980  -0.8663  -0.8478  -0.8342   0.3943   0.4064   0.4314   0.4385
     0.6778   0.6794   0.7062   0.7098   0.7120   0.7234   0.7313   0.7373
     0.7417   0.7467   0.7535   0.7545   0.7688   0.7723   0.7779   0.7843
     0.7877   0.7909   0.7963   0.8011   0.8038   0.8066   0.8103   0.8181
     0.8267   0.8314   0.8399   0.8462   0.8484   0.8533   0.8635   0.8677
     0.8747   0.8803   0.8846   0.8904   0.9009   0.9098   0.9130   0.9186
     0.9325   0.9356   0.9435   0.9512   0.9572   0.9595   0.9729   0.9774
     0.9801   0.9815   0.9925   0.9988   1.0028   1.0146   1.0279   1.0339
     1.5302   1.5815   1.5974   1.6009   1.6394   1.6662   1.6831   1.7013
     1.7163   1.7289   1.7306   1.7689   1.7929   1.8356   1.8611   1.8752
     1.9002   1.9090   1.9158   1.9336   1.9376   1.9513   1.9738   1.9771
     1.9924   1.9979   2.0058   2.0241   2.7462   2.7967   2.8318   2.8535
     2.8812   2.8941   2.9222   2.9582   3.3456   3.3575   3.3663   3.3822
     3.3980   3.4113   3.4192   3.4298   3.4440   3.4503   3.4662   3.4740
     3.4756   3.4885   3.5133   3.5194   3.6020   3.6114   3.6234   3.6316
     3.6386   3.6464   3.6471   3.6556   3.6650   3.6690   3.6739   3.6812
     3.6903   3.6976   3.7067   3.7149   3.7494   3.7674   3.7869   3.7985
     3.8350   3.8496   3.8542   3.8643   3.8724   3.8890   3.8917   3.8987
     3.9030   3.9076   3.9198   3.9309   3.9341   3.9401   3.9485   3.9514
     3.9566   3.9737   3.9783   3.9936   4.2530   4.2718   4.2819   4.2850
     4.3026   4.3120   4.3305   4.3465   4.3564   4.3974   4.4131   4.4219
     4.4250   4.4356   4.4423   4.4449   4.4477   4.4669   4.4688   4.4897
     4.4937   4.4958   4.5091   4.5145   4.5249   4.5355   4.5407   4.5544
     4.5615   4.5746   4.5816   4.5923   4.6211   4.6307   4.6598   4.6869
     4.7003   4.7085   4.7252   4.7339   4.7392   4.7461   4.7580   4.7668
     4.7743   4.7810   4.7928   4.8062   4.8114   4.8186   4.8297   4.8401
     4.8530   4.8567   4.8677   4.8768   4.8931   4.8995   4.9099   4.9216
     4.9300   4.9335   4.9436   4.9498   4.9559   4.9709   4.9800   4.9815
     4.9948   5.0009   5.0059   5.0167   5.0225   5.0419   5.0524   5.0618
     5.0850   5.0954   5.1097   5.1185   5.1192   5.1372   5.1457   5.1643
     5.1761   5.1765   5.1870   5.1919   5.2190   5.2471   5.2685   5.2744
     5.2894   5.3067   5.3091   5.3213   5.3272   5.3299   5.3438   5.3492
     5.3588   5.3659   5.3820   5.3856   5.3971   5.3995   5.4098   5.4188
     5.4245   5.4285   5.4460   5.4546   5.5733   5.5876   5.5961   5.6084
     5.6342   5.6424   5.6588   5.6677   5.6776   5.6979   5.7327   5.7591
     5.7641   5.7843   5.7957   5.8056   5.8152   5.8189   5.8404   5.8498
     5.8590   5.8667   5.8816   5.8912   5.9066   5.9117   5.9342   5.9428
     5.9449   5.9498   5.9695   5.9770   5.9844   5.9867   5.9984   6.0180
     6.0564   6.0740   6.1048   6.1121   6.1281   6.1314   6.1428   6.1634
     6.1724   6.1821   6.1960   6.2024   6.2113   6.2150   6.2278   6.2606
     6.3497   6.3752   6.3917   6.4166   6.7666   6.7853   6.8608   6.8817
     8.2156   8.2389   8.3138   8.3428   8.3834   8.4409   8.4499   8.4907
     8.4990   8.5239   8.5260   8.5420   8.6978   8.7074   8.7457   8.7638
     8.7817   8.8231   8.8424   8.8571   8.9435   8.9542   8.9802   8.9928
     9.0048   9.0161   9.0223   9.0457   9.0787   9.0811   9.0867   9.0951
     9.0988   9.1025   9.1086   9.1161   9.1283   9.1314   9.1413   9.1453
     9.1565   9.1701   9.1734   9.1810   9.1935   9.2014   9.2170   9.2193
     9.2286   9.2450   9.2536   9.2580   9.2668   9.2755   9.2781   9.3049
     9.3447   9.3507   9.3548   9.3641   9.3738   9.3889   9.4040   9.4138
     9.4362   9.4494   9.4538   9.4674   9.4789   9.4835   9.4943   9.4982
     9.5029   9.5108   9.5129   9.5160   9.5222   9.5338   9.5396   9.5432
     9.5464   9.5728   9.5737   9.5789   9.5878   9.5985   9.6019   9.6062
     9.6115   9.6214   9.6281   9.6347   9.6357   9.6422   9.6535   9.6585
     9.6635   9.6684   9.6796   9.6863   9.6902   9.7000   9.7131   9.7204
     9.7284   9.7301   9.7512   9.7637  10.0643  10.0862  10.1208  10.1338
    10.1382  10.1495  10.1663  10.1960  10.1985  10.2078  10.2390  10.2407
    10.2815  10.3153  10.3605  10.3820  10.3950  10.4038  10.4300  10.4379
    10.4398  10.4529  10.4681  10.4754  10.4932  10.5115  10.5282  10.5663
    10.6359  10.6617  10.6652  10.6881  10.6941  10.7172  10.7301  10.7344
    10.7539  10.7763  10.7833  10.7951  10.8213  10.8238  10.8281  10.8304
    10.9522  10.9766  10.9823  10.9980  10.9994  11.0074  11.0245  11.0345
    11.0402  11.0502  11.0565  11.0600  11.0710  11.0803  11.0967  11.1021
    11.1320  11.1427  11.1567  11.1659  11.1803  11.1885  11.1926  11.2025
    11.2044  11.2133  11.2228  11.2238  11.2324  11.2451  11.2494  11.2567
    11.2610  11.2685  11.2819  11.2921  11.2947  11.2972  11.3091  11.3108
    11.3136  11.3211  11.3267  11.3322  11.3382  11.3386  11.3476  11.3581
    11.3651  11.3712  11.3747  11.3791  11.3934  11.4057  11.4251  11.4315
    11.4385  11.4559  11.4634  11.4742  11.5710  11.5924  11.6010  11.6079
    11.6156  11.6258  11.6347  11.6373  11.6748  11.6769  11.6902  11.7070
    11.7140  11.7341  11.7390  11.7548  11.7577  11.7601  11.7714  11.7795
    11.7903  11.8020  11.8157  11.8191  11.8258  11.8292  11.8302  11.8519
    11.8720  11.8845  11.8904  11.9014  11.9384  11.9480  11.9532  11.9799
    11.9968  12.0036  12.0114  12.0220  12.0375  12.0418  12.0550  12.0614
    12.0692  12.0746  12.0813  12.0926  12.1004  12.1060  12.1176  12.1220
    12.1316  12.1471  12.1522  12.1610  12.1691  12.1817  12.1866  12.1997
    12.2035  12.2081  12.2134  12.2192  12.2710  12.2942  12.3061  12.3148
    12.3260  12.3381  12.3519  12.3625  12.3706  12.3844  12.3857  12.4006
    12.4227  12.4306  12.4668  12.4788  12.4893  12.4991  12.5154  12.5164
    12.5193  12.5310  12.5370  12.5482  12.5584  12.5647  12.5689  12.5756
    12.5836  12.5939  12.6026  12.6080  12.6112  12.6145  12.6182  12.6230
    12.6326  12.6390  12.6512  12.6566  12.6610  12.6714  12.6782  12.6843
    12.6886  12.6996  12.7042  12.7119  12.7217  12.7267  12.7368  12.7542
    12.7617  12.7672  12.7684  12.7722  12.7851  12.7882  12.7954  12.8003
    12.8087  12.8179  12.8257  12.8303  12.8448  12.8467  12.8553  12.8605
    12.8715  12.8912  12.9048  12.9100  12.9395  12.9421  12.9582  12.9701
    13.2683  13.3079  13.3194  13.3338  13.3406  13.3526  13.3647  13.3870
    13.4116  13.4179  13.4411  13.4504  13.4553  13.4791  13.4869  13.5038
    13.5400  13.5617  13.5899  13.6123  13.6209  13.6325  13.6349  13.6408
    13.6578  13.6682  13.6711  13.6812  13.6946  13.7157  13.7387  13.7569
    13.8203  13.8533  13.8645  13.8830  13.9048  13.9147  13.9385  13.9449
    13.9537  13.9671  13.9714  13.9826  14.0014  14.0129  14.0278  14.0358
    14.0358  14.0431  14.0604  14.0616  14.0751  14.0845  14.0916  14.0938
    14.1050  14.1177  14.1210  14.1274  14.1472  14.1538  14.1669  14.1777
    14.2550  14.2678  14.2804  14.3068  14.3256  14.3379  14.3523  14.3601
    14.3623  14.3754  14.3856  14.4025  14.4099  14.4253  14.4407  14.4471
    14.4620  14.4917  14.5062  14.5232  14.5604  14.5670  14.5773  14.5927
    14.6763  14.6794  14.6826  14.6853  14.7467  14.7597  14.7805  14.7964
    14.8067  14.8181  14.8278  14.8356  14.8406  14.8462  14.8543  14.8656
    14.8711  14.8780  14.8873  14.8913  14.8978  14.9118  14.9213  14.9257
    14.9337  14.9483  14.9627  14.9689  14.9731  14.9795  14.9966  15.0037
    15.0101  15.0160  15.0179  15.0285  15.0363  15.0412  15.0491  15.0576
    15.0714  15.0724  15.0844  15.0867  15.0904  15.0997  15.1038  15.1118
    15.1177  15.1316  15.1445  15.1630  15.1809  15.1885  15.2121  15.2267
    15.2400  15.2565  15.2634  15.2783  15.2789  15.2835  15.2992  15.3087
    15.3169  15.3273  15.3330  15.3385  15.3417  15.3514  15.3637  15.3686
    15.3727  15.3828  15.3879  15.3935  15.3971  15.4084  15.4150  15.4252
    15.4293  15.4382  15.4416  15.4501  15.4542  15.4584  15.4740  15.4768
    15.5156  15.5276  15.5389  15.5506  15.5647  15.5715  15.5824  15.5883
    15.6101  15.6258  15.6301  15.6499  15.6595  15.6684  15.6710  15.6761
    15.6796  15.6908  15.6949  15.7072  15.7159  15.7165  15.7236  15.7386
    15.7401  15.7443  15.7511  15.7613  15.7684  15.7761  15.7802  15.7903
    15.7972  15.8122  15.8142  15.8249  15.8406  15.8605  15.8732  15.8893
    15.8937  15.9096  15.9304  15.9601  15.9951  16.0190  16.0498  16.0700
    16.0801  16.0958  16.1284  16.1344  16.1487  16.1505  16.1710  16.1767
    16.1810  16.1922  16.1983  16.2006  16.2107  16.2213  16.2252  16.2278
    16.2332  16.2477  16.2515  16.2568  16.2602  16.2647  16.2719  16.2755
    16.2793  16.2877  16.2922  16.2999  16.3037  16.3127  16.3197  16.3367
    16.5416  16.5649  16.5670  16.5819  16.5884  16.5908  16.6069  16.6111
    16.6274  16.6407  16.6563  16.6616  16.6799  16.6952  16.7092  16.7619
    16.7671  16.7957  16.8120  16.8197  16.8397  16.8518  16.8619  16.8658
    16.8717  16.8820  16.8881  16.8973  16.9065  16.9099  16.9171  16.9296
    16.9400  16.9486  16.9566  16.9597  16.9660  16.9808  16.9911  16.9990

     highest occupied, lowest unoccupied level (ev):     6.9382    7.0971

!    total energy              =  -34815.20012765 Ry
     estimated scf accuracy    <       0.00000535 Ry

     The total energy is the sum of the following terms:
     one-electron contribution =  -16858.52031099 Ry
     hartree contribution      =   10159.09750305 Ry
     xc contribution           =   -9298.74164863 Ry
     ewald contribution        =  -18819.27722757 Ry
     Hubbard energy            =       2.24155649 Ry

     convergence has been achieved in  12 iterations

     Writing all to output data dir ./tmp_In1.0Ga0.0As0.25Sb0.75_cube_3x3x3.7/In1.0Ga0.0As0.25Sb0.75_cube_3x3x3.7.save/ :
     XML data file, charge density, pseudopotentials, collected wavefunctions

     init_run     :    346.30s CPU    349.79s WALL (       1 calls)
     electrons    :  13715.91s CPU  13751.11s WALL (       1 calls)

     Called by init_run:
     wfcinit      :    336.61s CPU    339.89s WALL (       1 calls)
     potinit      :      0.26s CPU      0.32s WALL (       1 calls)
     hinit0       :      1.02s CPU      1.05s WALL (       1 calls)

     Called by electrons:
     c_bands      :  13355.06s CPU  13389.11s WALL (      13 calls)
     sum_band     :    356.26s CPU    356.74s WALL (      13 calls)
     v_of_rho     :      2.80s CPU      2.93s WALL (      13 calls)
     mix_rho      :      0.89s CPU      0.90s WALL (      13 calls)

     Called by c_bands:
     init_us_2    :     49.04s CPU     49.48s WALL (      56 calls)
     cegterg      :  12917.35s CPU  12948.59s WALL (      26 calls)

     Called by *egterg:
     cdiaghg      :   1546.33s CPU   1547.24s WALL (     252 calls)
     h_psi        :   7477.31s CPU   7495.57s WALL (     256 calls)
     g_psi        :      8.10s CPU      8.10s WALL (     228 calls)

     Called by h_psi:
     h_psi:calbec :   1273.81s CPU   1273.93s WALL (     256 calls)
     vloc_psi     :    942.14s CPU    943.75s WALL (     256 calls)
     add_vuspsi   :   1236.11s CPU   1243.10s WALL (     256 calls)
     vhpsi        :   4010.47s CPU   4010.75s WALL (     256 calls)

     General routines
     calbec       :   1605.82s CPU   1605.97s WALL (     540 calls)
     fft          :      2.30s CPU      2.41s WALL (     131 calls)
     ffts         :      0.21s CPU      0.21s WALL (      13 calls)
     fftw         :    962.60s CPU    964.43s WALL (  327918 calls)

     Parallel routines

     Hubbard U routines
     new_ns       :    100.24s CPU    100.25s WALL (      13 calls)
     vhpsi        :   4010.47s CPU   4010.75s WALL (     256 calls)

     PWSCF        :      3h55m CPU      3h58m WALL


   This run was terminated on:   8:25:17   8Apr2026            

=------------------------------------------------------------------------------=
   JOB DONE.
=------------------------------------------------------------------------------=
