
     Program PWSCF v.7.3.1 starts on 27Jan2026 at 20:12:16 

     This program is part of the open-source Quantum ESPRESSO suite
     for quantum simulation of materials; please cite
         "P. Giannozzi et al., J. Phys.:Condens. Matter 21 395502 (2009);
         "P. Giannozzi et al., J. Phys.:Condens. Matter 29 465901 (2017);
         "P. Giannozzi et al., J. Chem. Phys. 152 154105 (2020);
          URL http://www.quantum-espresso.org", 
     in publications or presentations arising from this work. More details at
     http://www.quantum-espresso.org/quote

     Parallel version (MPI), running on   640 processors

     MPI processes distributed on     5 nodes
     479910 MiB available memory on the printing compute node when the environment starts

     Reading input from In1.0Ga0.0As0.25Sb0.75_cube_3x3x3.0.scf.in
Warning: card &CELL ignored
Warning: card   CELL_DOFREE = 'ALL', ignored
Warning: card / ignored

     Current dimensions of program PWSCF are:
     Max number of different atomic species (ntypx) = 10
     Max number of k-points (npk) =  40000
     Max angular momentum in pseudopotentials (lmaxx) =  4

     K-points division:     npool     =       5
     R & G space division:  proc/nbgrp/npool/nimage =     128
     Subspace diagonalization in iterative solution of the eigenvalue problem:
     one sub-group per band group will be used
     custom distributed-memory algorithm (size of sub-group: 11* 11 procs)


     Parallelization info
     --------------------
     sticks:   dense  smooth     PW     G-vecs:    dense   smooth      PW
     Min         395     395    101                66867    66867    8705
     Max         396     396    102                66873    66873    8712
     Sum       50573   50573  12989              8559297  8559297 1114533

     Using Slab Decomposition



     bravais-lattice index     =            1
     lattice parameter (alat)  =      36.3917  a.u.
     unit-cell volume          =   48195.5742 (a.u.)^3
     number of atoms/cell      =          216
     number of atomic types    =            4
     number of electrons       =      3024.00
     number of Kohn-Sham states=         2160
     kinetic-energy cutoff     =     120.0000  Ry
     charge density cutoff     =     480.0000  Ry
     scf convergence threshold =      1.0E-05
     mixing beta               =       0.6500
     number of iterations used =            8  plain     mixing
     Exchange-correlation= PBE
                           (   1   4   3   4   0   0   0)
     Hubbard projectors: atomic
     Hubbard parameters of DFT+U (Dudarev formulation) in eV:
     U(As-4p) =  3.2600
     U(Ga-4p) = -2.3350
     U(In-5p) = -1.0575
     U(Sb-5p) =  3.1600

     Internal variables: lda_plus_u =T, lda_plus_u_kind = 0

     celldm(1)=  36.391704  celldm(2)=   0.000000  celldm(3)=   0.000000
     celldm(4)=   0.000000  celldm(5)=   0.000000  celldm(6)=   0.000000

     crystal axes: (cart. coord. in units of alat)
               a(1) = (   1.000000   0.000000   0.000000 )  
               a(2) = (   0.000000   1.000000   0.000000 )  
               a(3) = (   0.000000   0.000000   1.000000 )  

     reciprocal axes: (cart. coord. in units 2 pi/alat)
               b(1) = (  1.000000  0.000000  0.000000 )  
               b(2) = (  0.000000  1.000000  0.000000 )  
               b(3) = (  0.000000  0.000000  1.000000 )  


     PseudoPot. # 1 for As read from file:
     /work/i254/i254/gentles/data/pseudos/As.pbe.NC-SR.standard.v0.5.UPF
     MD5 check sum: bfe1a874457ce592347346129958e7cf
     Pseudo is Norm-conserving + core correction, Zval = 15.0
     Generated using ONCVPSP code by D. R. Hamann
     Using radial grid of 1358 points,  6 beta functions with: 
                l(1) =   0
                l(2) =   0
                l(3) =   1
                l(4) =   1
                l(5) =   2
                l(6) =   2

     PseudoPot. # 2 for Ga read from file:
     /work/i254/i254/gentles/data/pseudos/Ga.pbe.NC-SR.standard.v0.5.UPF
     MD5 check sum: 2bb81bf6f0a8d9832cf3329850435ecf
     Pseudo is Norm-conserving + core correction, Zval = 13.0
     Generated using ONCVPSP code by D. R. Hamann
     Using radial grid of 1902 points,  6 beta functions with: 
                l(1) =   0
                l(2) =   0
                l(3) =   1
                l(4) =   1
                l(5) =   2
                l(6) =   2

     PseudoPot. # 3 for In read from file:
     /work/i254/i254/gentles/data/pseudos/In.pbe.NC-SR.standard.v0.5.UPF
     MD5 check sum: 835f4bf908c982ff75c88e16816a8d7f
     Pseudo is Norm-conserving + core correction, Zval = 13.0
     Generated using ONCVPSP code by D. R. Hamann
     Using radial grid of 1964 points,  6 beta functions with: 
                l(1) =   0
                l(2) =   0
                l(3) =   1
                l(4) =   1
                l(5) =   2
                l(6) =   2

     PseudoPot. # 4 for Sb read from file:
     /work/i254/i254/gentles/data/pseudos/Sb.pbe.NC-SR.standard.v0.5.UPF
     MD5 check sum: 127f69b6101c45666faeae1b5d611565
     Pseudo is Norm-conserving + core correction, Zval = 15.0
     Generated using ONCVPSP code by D. R. Hamann
     Using radial grid of 1434 points,  6 beta functions with: 
                l(1) =   0
                l(2) =   0
                l(3) =   1
                l(4) =   1
                l(5) =   2
                l(6) =   2

     atomic species   valence    mass     pseudopotential
     As               15.00    74.92160     As( 1.00)
     Ga               13.00    69.72300     Ga( 1.00)
     In               13.00   114.81800     In( 1.00)
     Sb               15.00   121.76000     Sb( 1.00)

     No symmetry found



   Cartesian axes

     site n.     atom                  positions (alat units)
         1        In     tau(   1) = (  -0.0017540   0.0070460   0.0005630  )
         2        In     tau(   2) = (   0.0030000   0.1615130   0.1636850  )
         3        In     tau(   3) = (   0.1606150  -0.0002650   0.1653650  )
         4        In     tau(   4) = (   0.1640660   0.1598700   0.0040310  )
         5        As     tau(   5) = (   0.0819270   0.0805440   0.0834390  )
         6        Sb     tau(   6) = (   0.0834980   0.2475250   0.2494750  )
         7        Sb     tau(   7) = (   0.2481410   0.0815500   0.2493820  )
         8        Sb     tau(   8) = (   0.2485030   0.2487160   0.0829190  )
         9        In     tau(   9) = (   0.0077390   0.0001360   0.3331780  )
        10        In     tau(  10) = (   0.0004070   0.1560220   0.4986100  )
        11        In     tau(  11) = (   0.1683390   0.0012150   0.4932100  )
        12        In     tau(  12) = (   0.1638830   0.1622670   0.3373130  )
        13        As     tau(  13) = (   0.0844540   0.0804560   0.4162090  )
        14        Sb     tau(  14) = (   0.0815190   0.2456860   0.5816450  )
        15        Sb     tau(  15) = (   0.2530480   0.0821250   0.5826350  )
        16        Sb     tau(  16) = (   0.2509590   0.2466880   0.4181940  )
        17        In     tau(  17) = (  -0.0077220   0.0039440   0.6618310  )
        18        In     tau(  18) = (  -0.0058390   0.1625670   0.8375440  )
        19        In     tau(  19) = (   0.1683840  -0.0002100   0.8319670  )
        20        In     tau(  20) = (   0.1668960   0.1652620   0.6675500  )
        21        Sb     tau(  21) = (   0.0795860   0.0824610   0.7501240  )
        22        Sb     tau(  22) = (   0.0835090   0.2473090   0.9185820  )
        23        Sb     tau(  23) = (   0.2538510   0.0816570   0.9172990  )
        24        Sb     tau(  24) = (   0.2543480   0.2483450   0.7496630  )
        25        In     tau(  25) = (   0.0048990   0.3365550   0.0036190  )
        26        In     tau(  26) = (  -0.0005300   0.5003580   0.1577110  )
        27        In     tau(  27) = (   0.1621410   0.3361360   0.1634930  )
        28        In     tau(  28) = (   0.1670480   0.4931450  -0.0000140  )
        29        As     tau(  29) = (   0.0838560   0.4179530   0.0823400  )
        30        Sb     tau(  30) = (   0.0810780   0.5825670   0.2475300  )
        31        Sb     tau(  31) = (   0.2495970   0.4156770   0.2485490  )
        32        Sb     tau(  32) = (   0.2507390   0.5831770   0.0813130  )
        33        In     tau(  33) = (  -0.0028260   0.3300110   0.3325310  )
        34        In     tau(  34) = (  -0.0019500   0.4985340   0.4999670  )
        35        In     tau(  35) = (   0.1662990   0.3314680   0.4999790  )
        36        In     tau(  36) = (   0.1660870   0.4998120   0.3325710  )
        37        Sb     tau(  37) = (   0.0820110   0.4148100   0.4158040  )
        38        Sb     tau(  38) = (   0.0838190   0.5836210   0.5825300  )
        39        Sb     tau(  39) = (   0.2527850   0.4137620   0.5832400  )
        40        Sb     tau(  40) = (   0.2512030   0.5842190   0.4164470  )
        41        In     tau(  41) = (  -0.0004830   0.3310060   0.6676420  )
        42        In     tau(  42) = (  -0.0019180   0.5012710   0.8327340  )
        43        In     tau(  43) = (   0.1719780   0.3329870   0.8375880  )
        44        In     tau(  44) = (   0.1682270   0.4990260   0.6667120  )
        45        Sb     tau(  45) = (   0.0847300   0.4149460   0.7518970  )
        46        Sb     tau(  46) = (   0.0825890   0.5825610   0.9196430  )
        47        As     tau(  47) = (   0.2488080   0.4152940   0.9184880  )
        48        Sb     tau(  48) = (   0.2508460   0.5833990   0.7516980  )
        49        In     tau(  49) = (  -0.0054770   0.6645660   0.0038720  )
        50        In     tau(  50) = (   0.0040480   0.8401120   0.1713540  )
        51        In     tau(  51) = (   0.1670290   0.6677240   0.1664170  )
        52        In     tau(  52) = (   0.1665460   0.8351560   0.0005320  )
        53        Sb     tau(  53) = (   0.0813160   0.7518120   0.0844830  )
        54        As     tau(  54) = (   0.0856720   0.9201260   0.2508250  )
        55        Sb     tau(  55) = (   0.2514880   0.7534880   0.2495470  )
        56        Sb     tau(  56) = (   0.2524160   0.9186310   0.0835170  )
        57        In     tau(  57) = (  -0.0020120   0.6680960   0.3323010  )
        58        In     tau(  58) = (  -0.0028200   0.8343700   0.5009930  )
        59        In     tau(  59) = (   0.1672840   0.6700120   0.4987040  )
        60        In     tau(  60) = (   0.1689440   0.8428780   0.3323550  )
        61        Sb     tau(  61) = (   0.0834640   0.7546140   0.4137640  )
        62        Sb     tau(  62) = (   0.0826550   0.9206300   0.5817890  )
        63        Sb     tau(  63) = (   0.2521420   0.7547070   0.5824280  )
        64        As     tau(  64) = (   0.2497280   0.9186440   0.4173850  )
        65        In     tau(  65) = (  -0.0000460   0.6677680   0.6671440  )
        66        In     tau(  66) = (  -0.0013990   0.8355100   0.8346250  )
        67        In     tau(  67) = (   0.1674210   0.6674900   0.8359550  )
        68        In     tau(  68) = (   0.1672200   0.8368880   0.6673570  )
        69        Sb     tau(  69) = (   0.0838690   0.7518710   0.7515270  )
        70        Sb     tau(  70) = (   0.0823010   0.9202690   0.9178380  )
        71        Sb     tau(  71) = (   0.2526760   0.7523680   0.9182970  )
        72        Sb     tau(  72) = (   0.2559960   0.9183180   0.7492590  )
        73        In     tau(  73) = (   0.3423620  -0.0002570   0.0003380  )
        74        In     tau(  74) = (   0.3365680   0.1617250   0.1625560  )
        75        In     tau(  75) = (   0.5023390   0.0066070   0.1677240  )
        76        In     tau(  76) = (   0.4962430   0.1619740   0.0045340  )
        77        As     tau(  77) = (   0.4185920   0.0810260   0.0845480  )
        78        Sb     tau(  78) = (   0.4195920   0.2459660   0.2488030  )
        79        As     tau(  79) = (   0.5845870   0.0808280   0.2517480  )
        80        Sb     tau(  80) = (   0.5829360   0.2477380   0.0853010  )
        81        In     tau(  81) = (   0.3293990  -0.0033400   0.3366580  )
        82        In     tau(  82) = (   0.3397710   0.1690160   0.5037450  )
        83        In     tau(  83) = (   0.5046390  -0.0022630   0.5041250  )
        84        In     tau(  84) = (   0.5044790   0.1600690   0.3310040  )
        85        Sb     tau(  85) = (   0.4188930   0.0799020   0.4184220  )
        86        As     tau(  86) = (   0.4199940   0.2457250   0.5852730  )
        87        As     tau(  87) = (   0.5825190   0.0814350   0.5835730  )
        88        Sb     tau(  88) = (   0.5842020   0.2458690   0.4190530  )
        89        In     tau(  89) = (   0.3427520   0.0000710   0.6644400  )
        90        In     tau(  90) = (   0.3397380   0.1588480   0.8270490  )
        91        In     tau(  91) = (   0.4979020  -0.0041980   0.8292930  )
        92        In     tau(  92) = (   0.4980980   0.1592960   0.6623360  )
        93        As     tau(  93) = (   0.4208260   0.0788100   0.7466550  )
        94        Sb     tau(  94) = (   0.4165430   0.2462290   0.9154600  )
        95        Sb     tau(  95) = (   0.5805410   0.0801470   0.9156170  )
        96        Sb     tau(  96) = (   0.5819050   0.2459300   0.7451820  )
        97        In     tau(  97) = (   0.3297640   0.3335340  -0.0045520  )
        98        In     tau(  98) = (   0.3343770   0.5008200   0.1667290  )
        99        In     tau(  99) = (   0.5031550   0.3357950   0.1697340  )
       100        In     tau( 100) = (   0.5010420   0.5010670  -0.0004370  )
       101        Sb     tau( 101) = (   0.4168030   0.4153810   0.0821870  )
       102        Sb     tau( 102) = (   0.4191610   0.5850850   0.2500410  )
       103        As     tau( 103) = (   0.5827470   0.4157550   0.2504130  )
       104        Sb     tau( 104) = (   0.5835190   0.5864350   0.0846080  )
       105        In     tau( 105) = (   0.3328330   0.3292810   0.3315010  )
       106        In     tau( 106) = (   0.3358850   0.4993810   0.4997390  )
       107        In     tau( 107) = (   0.4977570   0.3272670   0.5047290  )
       108        In     tau( 108) = (   0.5046190   0.4961500   0.3308390  )
       109        Sb     tau( 109) = (   0.4183610   0.4128570   0.4157030  )
       110        Sb     tau( 110) = (   0.4193110   0.5836370   0.5856700  )
       111        Sb     tau( 111) = (   0.5846840   0.4150600   0.5849470  )
       112        Sb     tau( 112) = (   0.5842980   0.5835580   0.4171050  )
       113        In     tau( 113) = (   0.3406860   0.3281320   0.6629590  )
       114        In     tau( 114) = (   0.3291570   0.4958280   0.8386390  )
       115        In     tau( 115) = (   0.5013030   0.3307820   0.8324060  )
       116        In     tau( 116) = (   0.5062360   0.5034420   0.6724040  )
       117        Sb     tau( 117) = (   0.4172070   0.4170330   0.7511790  )
       118        Sb     tau( 118) = (   0.4181020   0.5846730   0.9146280  )
       119        Sb     tau( 119) = (   0.5843130   0.4162090   0.9155750  )
       120        As     tau( 120) = (   0.5873930   0.5856270   0.7487660  )
       121        In     tau( 121) = (   0.3384230   0.6706440   0.0028050  )
       122        In     tau( 122) = (   0.3390500   0.8317130   0.1628940  )
       123        In     tau( 123) = (   0.4959110   0.6737260   0.1622980  )
       124        In     tau( 124) = (   0.4938370   0.8352630  -0.0022380  )
       125        As     tau( 125) = (   0.4172530   0.7531190   0.0804710  )
       126        Sb     tau( 126) = (   0.4185890   0.9192110   0.2499540  )
       127        Sb     tau( 127) = (   0.5828300   0.7531270   0.2490170  )
       128        Sb     tau( 128) = (   0.5822330   0.9162780   0.0821320  )
       129        In     tau( 129) = (   0.3356690   0.6702110   0.3346390  )
       130        In     tau( 130) = (   0.3350750   0.8447830   0.5012480  )
       131        In     tau( 131) = (   0.5003370   0.6697050   0.5008940  )
       132        In     tau( 132) = (   0.5065990   0.8420890   0.3368320  )
       133        Sb     tau( 133) = (   0.4186140   0.7577200   0.4179780  )
       134        As     tau( 134) = (   0.4210950   0.9198110   0.5830920  )
       135        Sb     tau( 135) = (   0.5854270   0.7534690   0.5847100  )
       136        As     tau( 136) = (   0.5837560   0.9218760   0.4189160  )
       137        In     tau( 137) = (   0.3351330   0.6698190   0.6683230  )
       138        In     tau( 138) = (   0.3387830   0.8385720   0.8389560  )
       139        In     tau( 139) = (   0.5069640   0.6645230   0.8285360  )
       140        In     tau( 140) = (   0.5009990   0.8411380   0.6659960  )
       141        Sb     tau( 141) = (   0.4206940   0.7541470   0.7514550  )
       142        As     tau( 142) = (   0.4189880   0.9193500   0.9166740  )
       143        Sb     tau( 143) = (   0.5846320   0.7539430   0.9154630  )
       144        As     tau( 144) = (   0.5813980   0.9183410   0.7494630  )
       145        In     tau( 145) = (   0.6687730  -0.0060510  -0.0061280  )
       146        In     tau( 146) = (   0.6632210   0.1601360   0.1700530  )
       147        In     tau( 147) = (   0.8327210  -0.0003200   0.1686000  )
       148        In     tau( 148) = (   0.8364490   0.1625500  -0.0034030  )
       149        Sb     tau( 149) = (   0.7490510   0.0806840   0.0811960  )
       150        Sb     tau( 150) = (   0.7463090   0.2472300   0.2526190  )
       151        Sb     tau( 151) = (   0.9175230   0.0825950   0.2526690  )
       152        Sb     tau( 152) = (   0.9189610   0.2478790   0.0818230  )
       153        In     tau( 153) = (   0.6622760   0.0033370   0.3386010  )
       154        In     tau( 154) = (   0.6683010   0.1604500   0.5043800  )
       155        In     tau( 155) = (   0.8309910   0.0064490   0.4999160  )
       156        In     tau( 156) = (   0.8266620   0.1606390   0.3388860  )
       157        As     tau( 157) = (   0.7458030   0.0816430   0.4196660  )
       158        As     tau( 158) = (   0.7491330   0.2431790   0.5820520  )
       159        As     tau( 159) = (   0.9139580   0.0838300   0.5797760  )
       160        Sb     tau( 160) = (   0.9148880   0.2442690   0.4187580  )
       161        In     tau( 161) = (   0.6574020   0.0011220   0.6685360  )
       162        In     tau( 162) = (   0.6650120   0.1648070   0.8318420  )
       163        In     tau( 163) = (   0.8327780  -0.0004990   0.8411450  )
       164        In     tau( 164) = (   0.8325700   0.1640840   0.6593340  )
       165        Sb     tau( 165) = (   0.7503360   0.0806830   0.7494030  )
       166        Sb     tau( 166) = (   0.7503300   0.2477330   0.9154620  )
       167        As     tau( 167) = (   0.9154530   0.0815800   0.9180380  )
       168        Sb     tau( 168) = (   0.9134910   0.2468360   0.7494000  )
       169        In     tau( 169) = (   0.6678470   0.3315720   0.0002490  )
       170        In     tau( 170) = (   0.6617090   0.4968880   0.1708540  )
       171        In     tau( 171) = (   0.8319570   0.3288510   0.1667680  )
       172        In     tau( 172) = (   0.8348370   0.5049610   0.0027760  )
       173        Sb     tau( 173) = (   0.7494220   0.4173840   0.0848280  )
       174        Sb     tau( 174) = (   0.7508630   0.5842190   0.2465250  )
       175        Sb     tau( 175) = (   0.9174110   0.4161070   0.2461410  )
       176        As     tau( 176) = (   0.9155800   0.5837520   0.0827580  )
       177        In     tau( 177) = (   0.6614010   0.3363790   0.3326300  )
       178        In     tau( 178) = (   0.6694310   0.5041930   0.5052250  )
       179        In     tau( 179) = (   0.8279480   0.3256480   0.5032750  )
       180        In     tau( 180) = (   0.8341170   0.4997520   0.3320090  )
       181        Sb     tau( 181) = (   0.7492950   0.4166570   0.4182580  )
       182        As     tau( 182) = (   0.7465970   0.5857340   0.5869660  )
       183        Sb     tau( 183) = (   0.9127680   0.4144520   0.5837740  )
       184        Sb     tau( 184) = (   0.9138670   0.5851100   0.4187100  )
       185        In     tau( 185) = (   0.6709900   0.3255700   0.6617890  )
       186        In     tau( 186) = (   0.6633680   0.5036240   0.8299480  )
       187        In     tau( 187) = (   0.8323110   0.3348460   0.8330390  )
       188        In     tau( 188) = (   0.8283020   0.5039200   0.6625040  )
       189        Sb     tau( 189) = (   0.7476690   0.4168790   0.7472050  )
       190        Sb     tau( 190) = (   0.7487710   0.5865280   0.9160920  )
       191        Sb     tau( 191) = (   0.9169170   0.4173770   0.9193450  )
       192        Sb     tau( 192) = (   0.9125790   0.5857230   0.7490200  )
       193        In     tau( 193) = (   0.6699150   0.6730460   0.0035210  )
       194        In     tau( 194) = (   0.6701750   0.8306630   0.1626360  )
       195        In     tau( 195) = (   0.8337170   0.6680920   0.1577490  )
       196        In     tau( 196) = (   0.8258480   0.8350170  -0.0008780  )
       197        As     tau( 197) = (   0.7515820   0.7520450   0.0820340  )
       198        Sb     tau( 198) = (   0.7457910   0.9182890   0.2522920  )
       199        Sb     tau( 199) = (   0.9152360   0.7521690   0.2468250  )
       200        Sb     tau( 200) = (   0.9158750   0.9177130   0.0825130  )
       201        In     tau( 201) = (   0.6666670   0.6674180   0.3312680  )
       202        In     tau( 202) = (   0.6635020   0.8397860   0.4957620  )
       203        In     tau( 203) = (   0.8261650   0.6642420   0.5057250  )
       204        In     tau( 204) = (   0.8326730   0.8349530   0.3339430  )
       205        Sb     tau( 205) = (   0.7482520   0.7511360   0.4177000  )
       206        Sb     tau( 206) = (   0.7461670   0.9207460   0.5839360  )
       207        Sb     tau( 207) = (   0.9123560   0.7506770   0.5856780  )
       208        Sb     tau( 208) = (   0.9167310   0.9211030   0.4165390  )
       209        In     tau( 209) = (   0.6688960   0.6670630   0.6700700  )
       210        In     tau( 210) = (   0.6673510   0.8393410   0.8282510  )
       211        In     tau( 211) = (   0.8269050   0.6736680   0.8289500  )
       212        In     tau( 212) = (   0.8249760   0.8319910   0.6703140  )
       213        As     tau( 213) = (   0.7447810   0.7526120   0.7500160  )
       214        As     tau( 214) = (   0.7493190   0.9151970   0.9139030  )
       215        Sb     tau( 215) = (   0.9128530   0.7510520   0.9173880  )
       216        Sb     tau( 216) = (   0.9126450   0.9177170   0.7504060  )

     number of k points=     8
                       cart. coord. in units 2pi/alat
        k(    1) = (   0.0000000   0.0000000   0.0000000), wk =   0.2500000
        k(    2) = (   0.0000000   0.0000000  -0.5000000), wk =   0.2500000
        k(    3) = (   0.0000000  -0.5000000  -0.5000000), wk =   0.2500000
        k(    4) = (  -0.5000000  -0.5000000  -0.5000000), wk =   0.2500000
        k(    5) = (  -0.5000000   0.0000000   0.0000000), wk =   0.2500000
        k(    6) = (   0.0000000  -0.5000000   0.0000000), wk =   0.2500000
        k(    7) = (  -0.5000000   0.0000000   0.5000000), wk =   0.2500000
        k(    8) = (  -0.5000000   0.5000000   0.0000000), wk =   0.2500000

     Dense  grid:  8559297 G-vectors     FFT dimensions: ( 256, 256, 256)

     Estimated max dynamical RAM per process >       2.79 GB

     Estimated total dynamical RAM >    1777.59 GB

     Initial potential from superposition of free atoms

     starting charge    3023.5275, renormalised to    3024.0000

     STARTING HUBBARD OCCUPATIONS:

     =================== HUBBARD OCCUPATIONS ===================
     ------------------------ ATOM    1 ------------------------
     Tr[ns(  1)] =   1.00000
     eigenvalues:
       0.167  0.167  0.167
     eigenvectors (columns):
       1.000  0.000  0.000
       0.000  1.000  0.000
       0.000  0.000  1.000
     occupation matrix ns (before diag.):
       0.167  0.000  0.000
       0.000  0.167  0.000
       0.000  0.000  0.167
     ------------------------ ATOM    2 ------------------------
     Tr[ns(  2)] =   1.00000
     eigenvalues:
       0.167  0.167  0.167
     eigenvectors (columns):
       1.000  0.000  0.000
       0.000  1.000  0.000
       0.000  0.000  1.000
     occupation matrix ns (before diag.):
       0.167  0.000  0.000
       0.000  0.167  0.000
       0.000  0.000  0.167
     ------------------------ ATOM    3 ------------------------
     Tr[ns(  3)] =   1.00000
     eigenvalues:
       0.167  0.167  0.167
     eigenvectors (columns):
       1.000  0.000  0.000
       0.000  1.000  0.000
       0.000  0.000  1.000
     occupation matrix ns (before diag.):
       0.167  0.000  0.000
       0.000  0.167  0.000
       0.000  0.000  0.167
     ------------------------ ATOM    4 ------------------------
     Tr[ns(  4)] =   1.00000
     eigenvalues:
       0.167  0.167  0.167
     eigenvectors (columns):
       1.000  0.000  0.000
       0.000  1.000  0.000
       0.000  0.000  1.000
     occupation matrix ns (before diag.):
       0.167  0.000  0.000
       0.000  0.167  0.000
       0.000  0.000  0.167
     ------------------------ ATOM    5 ------------------------
     Tr[ns(  5)] =   3.00000
     eigenvalues:
       0.500  0.500  0.500
     eigenvectors (columns):
       1.000  0.000  0.000
       0.000  1.000  0.000
       0.000  0.000  1.000
     occupation matrix ns (before diag.):
       0.500  0.000  0.000
       0.000  0.500  0.000
       0.000  0.000  0.500
     ------------------------ ATOM    6 ------------------------
     Tr[ns(  6)] =   3.00000
     eigenvalues:
       0.500  0.500  0.500
     eigenvectors (columns):
       1.000  0.000  0.000
       0.000  1.000  0.000
       0.000  0.000  1.000
     occupation matrix ns (before diag.):
       0.500  0.000  0.000
       0.000  0.500  0.000
       0.000  0.000  0.500
     ------------------------ ATOM    7 ------------------------
     Tr[ns(  7)] =   3.00000
     eigenvalues:
       0.500  0.500  0.500
     eigenvectors (columns):
       1.000  0.000  0.000
       0.000  1.000  0.000
       0.000  0.000  1.000
     occupation matrix ns (before diag.):
       0.500  0.000  0.000
       0.000  0.500  0.000
       0.000  0.000  0.500
     ------------------------ ATOM    8 ------------------------
     Tr[ns(  8)] =   3.00000
     eigenvalues:
       0.500  0.500  0.500
     eigenvectors (columns):
       1.000  0.000  0.000
       0.000  1.000  0.000
       0.000  0.000  1.000
     occupation matrix ns (before diag.):
       0.500  0.000  0.000
       0.000  0.500  0.000
       0.000  0.000  0.500
     ------------------------ ATOM    9 ------------------------
     Tr[ns(  9)] =   1.00000
     eigenvalues:
       0.167  0.167  0.167
     eigenvectors (columns):
       1.000  0.000  0.000
       0.000  1.000  0.000
       0.000  0.000  1.000
     occupation matrix ns (before diag.):
       0.167  0.000  0.000
       0.000  0.167  0.000
       0.000  0.000  0.167
     ------------------------ ATOM   10 ------------------------
     Tr[ns( 10)] =   1.00000
     eigenvalues:
       0.167  0.167  0.167
     eigenvectors (columns):
       1.000  0.000  0.000
       0.000  1.000  0.000
       0.000  0.000  1.000
     occupation matrix ns (before diag.):
       0.167  0.000  0.000
       0.000  0.167  0.000
       0.000  0.000  0.167
     ------------------------ ATOM   11 ------------------------
     Tr[ns( 11)] =   1.00000
     eigenvalues:
       0.167  0.167  0.167
     eigenvectors (columns):
       1.000  0.000  0.000
       0.000  1.000  0.000
       0.000  0.000  1.000
     occupation matrix ns (before diag.):
       0.167  0.000  0.000
       0.000  0.167  0.000
       0.000  0.000  0.167
     ------------------------ ATOM   12 ------------------------
     Tr[ns( 12)] =   1.00000
     eigenvalues:
       0.167  0.167  0.167
     eigenvectors (columns):
       1.000  0.000  0.000
       0.000  1.000  0.000
       0.000  0.000  1.000
     occupation matrix ns (before diag.):
       0.167  0.000  0.000
       0.000  0.167  0.000
       0.000  0.000  0.167
     ------------------------ ATOM   13 ------------------------
     Tr[ns( 13)] =   3.00000
     eigenvalues:
       0.500  0.500  0.500
     eigenvectors (columns):
       1.000  0.000  0.000
       0.000  1.000  0.000
       0.000  0.000  1.000
     occupation matrix ns (before diag.):
       0.500  0.000  0.000
       0.000  0.500  0.000
       0.000  0.000  0.500
     ------------------------ ATOM   14 ------------------------
     Tr[ns( 14)] =   3.00000
     eigenvalues:
       0.500  0.500  0.500
     eigenvectors (columns):
       1.000  0.000  0.000
       0.000  1.000  0.000
       0.000  0.000  1.000
     occupation matrix ns (before diag.):
       0.500  0.000  0.000
       0.000  0.500  0.000
       0.000  0.000  0.500
     ------------------------ ATOM   15 ------------------------
     Tr[ns( 15)] =   3.00000
     eigenvalues:
       0.500  0.500  0.500
     eigenvectors (columns):
       1.000  0.000  0.000
       0.000  1.000  0.000
       0.000  0.000  1.000
     occupation matrix ns (before diag.):
       0.500  0.000  0.000
       0.000  0.500  0.000
       0.000  0.000  0.500
     ------------------------ ATOM   16 ------------------------
     Tr[ns( 16)] =   3.00000
     eigenvalues:
       0.500  0.500  0.500
     eigenvectors (columns):
       1.000  0.000  0.000
       0.000  1.000  0.000
       0.000  0.000  1.000
     occupation matrix ns (before diag.):
       0.500  0.000  0.000
       0.000  0.500  0.000
       0.000  0.000  0.500
     ------------------------ ATOM   17 ------------------------
     Tr[ns( 17)] =   1.00000
     eigenvalues:
       0.167  0.167  0.167
     eigenvectors (columns):
       1.000  0.000  0.000
       0.000  1.000  0.000
       0.000  0.000  1.000
     occupation matrix ns (before diag.):
       0.167  0.000  0.000
       0.000  0.167  0.000
       0.000  0.000  0.167
     ------------------------ ATOM   18 ------------------------
     Tr[ns( 18)] =   1.00000
     eigenvalues:
       0.167  0.167  0.167
     eigenvectors (columns):
       1.000  0.000  0.000
       0.000  1.000  0.000
       0.000  0.000  1.000
     occupation matrix ns (before diag.):
       0.167  0.000  0.000
       0.000  0.167  0.000
       0.000  0.000  0.167
     ------------------------ ATOM   19 ------------------------
     Tr[ns( 19)] =   1.00000
     eigenvalues:
       0.167  0.167  0.167
     eigenvectors (columns):
       1.000  0.000  0.000
       0.000  1.000  0.000
       0.000  0.000  1.000
     occupation matrix ns (before diag.):
       0.167  0.000  0.000
       0.000  0.167  0.000
       0.000  0.000  0.167
     ------------------------ ATOM   20 ------------------------
     Tr[ns( 20)] =   1.00000
     eigenvalues:
       0.167  0.167  0.167
     eigenvectors (columns):
       1.000  0.000  0.000
       0.000  1.000  0.000
       0.000  0.000  1.000
     occupation matrix ns (before diag.):
       0.167  0.000  0.000
       0.000  0.167  0.000
       0.000  0.000  0.167
     ------------------------ ATOM   21 ------------------------
     Tr[ns( 21)] =   3.00000
     eigenvalues:
       0.500  0.500  0.500
     eigenvectors (columns):
       1.000  0.000  0.000
       0.000  1.000  0.000
       0.000  0.000  1.000
     occupation matrix ns (before diag.):
       0.500  0.000  0.000
       0.000  0.500  0.000
       0.000  0.000  0.500
     ------------------------ ATOM   22 ------------------------
     Tr[ns( 22)] =   3.00000
     eigenvalues:
       0.500  0.500  0.500
     eigenvectors (columns):
       1.000  0.000  0.000
       0.000  1.000  0.000
       0.000  0.000  1.000
     occupation matrix ns (before diag.):
       0.500  0.000  0.000
       0.000  0.500  0.000
       0.000  0.000  0.500
     ------------------------ ATOM   23 ------------------------
     Tr[ns( 23)] =   3.00000
     eigenvalues:
       0.500  0.500  0.500
     eigenvectors (columns):
       1.000  0.000  0.000
       0.000  1.000  0.000
       0.000  0.000  1.000
     occupation matrix ns (before diag.):
       0.500  0.000  0.000
       0.000  0.500  0.000
       0.000  0.000  0.500
     ------------------------ ATOM   24 ------------------------
     Tr[ns( 24)] =   3.00000
     eigenvalues:
       0.500  0.500  0.500
     eigenvectors (columns):
       1.000  0.000  0.000
       0.000  1.000  0.000
       0.000  0.000  1.000
     occupation matrix ns (before diag.):
       0.500  0.000  0.000
       0.000  0.500  0.000
       0.000  0.000  0.500
     ------------------------ ATOM   25 ------------------------
     Tr[ns( 25)] =   1.00000
     eigenvalues:
       0.167  0.167  0.167
     eigenvectors (columns):
       1.000  0.000  0.000
       0.000  1.000  0.000
       0.000  0.000  1.000
     occupation matrix ns (before diag.):
       0.167  0.000  0.000
       0.000  0.167  0.000
       0.000  0.000  0.167
     ------------------------ ATOM   26 ------------------------
     Tr[ns( 26)] =   1.00000
     eigenvalues:
       0.167  0.167  0.167
     eigenvectors (columns):
       1.000  0.000  0.000
       0.000  1.000  0.000
       0.000  0.000  1.000
     occupation matrix ns (before diag.):
       0.167  0.000  0.000
       0.000  0.167  0.000
       0.000  0.000  0.167
     ------------------------ ATOM   27 ------------------------
     Tr[ns( 27)] =   1.00000
     eigenvalues:
       0.167  0.167  0.167
     eigenvectors (columns):
       1.000  0.000  0.000
       0.000  1.000  0.000
       0.000  0.000  1.000
     occupation matrix ns (before diag.):
       0.167  0.000  0.000
       0.000  0.167  0.000
       0.000  0.000  0.167
     ------------------------ ATOM   28 ------------------------
     Tr[ns( 28)] =   1.00000
     eigenvalues:
       0.167  0.167  0.167
     eigenvectors (columns):
       1.000  0.000  0.000
       0.000  1.000  0.000
       0.000  0.000  1.000
     occupation matrix ns (before diag.):
       0.167  0.000  0.000
       0.000  0.167  0.000
       0.000  0.000  0.167
     ------------------------ ATOM   29 ------------------------
     Tr[ns( 29)] =   3.00000
     eigenvalues:
       0.500  0.500  0.500
     eigenvectors (columns):
       1.000  0.000  0.000
       0.000  1.000  0.000
       0.000  0.000  1.000
     occupation matrix ns (before diag.):
       0.500  0.000  0.000
       0.000  0.500  0.000
       0.000  0.000  0.500
     ------------------------ ATOM   30 ------------------------
     Tr[ns( 30)] =   3.00000
     eigenvalues:
       0.500  0.500  0.500
     eigenvectors (columns):
       1.000  0.000  0.000
       0.000  1.000  0.000
       0.000  0.000  1.000
     occupation matrix ns (before diag.):
       0.500  0.000  0.000
       0.000  0.500  0.000
       0.000  0.000  0.500
     ------------------------ ATOM   31 ------------------------
     Tr[ns( 31)] =   3.00000
     eigenvalues:
       0.500  0.500  0.500
     eigenvectors (columns):
       1.000  0.000  0.000
       0.000  1.000  0.000
       0.000  0.000  1.000
     occupation matrix ns (before diag.):
       0.500  0.000  0.000
       0.000  0.500  0.000
       0.000  0.000  0.500
     ------------------------ ATOM   32 ------------------------
     Tr[ns( 32)] =   3.00000
     eigenvalues:
       0.500  0.500  0.500
     eigenvectors (columns):
       1.000  0.000  0.000
       0.000  1.000  0.000
       0.000  0.000  1.000
     occupation matrix ns (before diag.):
       0.500  0.000  0.000
       0.000  0.500  0.000
       0.000  0.000  0.500
     ------------------------ ATOM   33 ------------------------
     Tr[ns( 33)] =   1.00000
     eigenvalues:
       0.167  0.167  0.167
     eigenvectors (columns):
       1.000  0.000  0.000
       0.000  1.000  0.000
       0.000  0.000  1.000
     occupation matrix ns (before diag.):
       0.167  0.000  0.000
       0.000  0.167  0.000
       0.000  0.000  0.167
     ------------------------ ATOM   34 ------------------------
     Tr[ns( 34)] =   1.00000
     eigenvalues:
       0.167  0.167  0.167
     eigenvectors (columns):
       1.000  0.000  0.000
       0.000  1.000  0.000
       0.000  0.000  1.000
     occupation matrix ns (before diag.):
       0.167  0.000  0.000
       0.000  0.167  0.000
       0.000  0.000  0.167
     ------------------------ ATOM   35 ------------------------
     Tr[ns( 35)] =   1.00000
     eigenvalues:
       0.167  0.167  0.167
     eigenvectors (columns):
       1.000  0.000  0.000
       0.000  1.000  0.000
       0.000  0.000  1.000
     occupation matrix ns (before diag.):
       0.167  0.000  0.000
       0.000  0.167  0.000
       0.000  0.000  0.167
     ------------------------ ATOM   36 ------------------------
     Tr[ns( 36)] =   1.00000
     eigenvalues:
       0.167  0.167  0.167
     eigenvectors (columns):
       1.000  0.000  0.000
       0.000  1.000  0.000
       0.000  0.000  1.000
     occupation matrix ns (before diag.):
       0.167  0.000  0.000
       0.000  0.167  0.000
       0.000  0.000  0.167
     ------------------------ ATOM   37 ------------------------
     Tr[ns( 37)] =   3.00000
     eigenvalues:
       0.500  0.500  0.500
     eigenvectors (columns):
       1.000  0.000  0.000
       0.000  1.000  0.000
       0.000  0.000  1.000
     occupation matrix ns (before diag.):
       0.500  0.000  0.000
       0.000  0.500  0.000
       0.000  0.000  0.500
     ------------------------ ATOM   38 ------------------------
     Tr[ns( 38)] =   3.00000
     eigenvalues:
       0.500  0.500  0.500
     eigenvectors (columns):
       1.000  0.000  0.000
       0.000  1.000  0.000
       0.000  0.000  1.000
     occupation matrix ns (before diag.):
       0.500  0.000  0.000
       0.000  0.500  0.000
       0.000  0.000  0.500
     ------------------------ ATOM   39 ------------------------
     Tr[ns( 39)] =   3.00000
     eigenvalues:
       0.500  0.500  0.500
     eigenvectors (columns):
       1.000  0.000  0.000
       0.000  1.000  0.000
       0.000  0.000  1.000
     occupation matrix ns (before diag.):
       0.500  0.000  0.000
       0.000  0.500  0.000
       0.000  0.000  0.500
     ------------------------ ATOM   40 ------------------------
     Tr[ns( 40)] =   3.00000
     eigenvalues:
       0.500  0.500  0.500
     eigenvectors (columns):
       1.000  0.000  0.000
       0.000  1.000  0.000
       0.000  0.000  1.000
     occupation matrix ns (before diag.):
       0.500  0.000  0.000
       0.000  0.500  0.000
       0.000  0.000  0.500
     ------------------------ ATOM   41 ------------------------
     Tr[ns( 41)] =   1.00000
     eigenvalues:
       0.167  0.167  0.167
     eigenvectors (columns):
       1.000  0.000  0.000
       0.000  1.000  0.000
       0.000  0.000  1.000
     occupation matrix ns (before diag.):
       0.167  0.000  0.000
       0.000  0.167  0.000
       0.000  0.000  0.167
     ------------------------ ATOM   42 ------------------------
     Tr[ns( 42)] =   1.00000
     eigenvalues:
       0.167  0.167  0.167
     eigenvectors (columns):
       1.000  0.000  0.000
       0.000  1.000  0.000
       0.000  0.000  1.000
     occupation matrix ns (before diag.):
       0.167  0.000  0.000
       0.000  0.167  0.000
       0.000  0.000  0.167
     ------------------------ ATOM   43 ------------------------
     Tr[ns( 43)] =   1.00000
     eigenvalues:
       0.167  0.167  0.167
     eigenvectors (columns):
       1.000  0.000  0.000
       0.000  1.000  0.000
       0.000  0.000  1.000
     occupation matrix ns (before diag.):
       0.167  0.000  0.000
       0.000  0.167  0.000
       0.000  0.000  0.167
     ------------------------ ATOM   44 ------------------------
     Tr[ns( 44)] =   1.00000
     eigenvalues:
       0.167  0.167  0.167
     eigenvectors (columns):
       1.000  0.000  0.000
       0.000  1.000  0.000
       0.000  0.000  1.000
     occupation matrix ns (before diag.):
       0.167  0.000  0.000
       0.000  0.167  0.000
       0.000  0.000  0.167
     ------------------------ ATOM   45 ------------------------
     Tr[ns( 45)] =   3.00000
     eigenvalues:
       0.500  0.500  0.500
     eigenvectors (columns):
       1.000  0.000  0.000
       0.000  1.000  0.000
       0.000  0.000  1.000
     occupation matrix ns (before diag.):
       0.500  0.000  0.000
       0.000  0.500  0.000
       0.000  0.000  0.500
     ------------------------ ATOM   46 ------------------------
     Tr[ns( 46)] =   3.00000
     eigenvalues:
       0.500  0.500  0.500
     eigenvectors (columns):
       1.000  0.000  0.000
       0.000  1.000  0.000
       0.000  0.000  1.000
     occupation matrix ns (before diag.):
       0.500  0.000  0.000
       0.000  0.500  0.000
       0.000  0.000  0.500
     ------------------------ ATOM   47 ------------------------
     Tr[ns( 47)] =   3.00000
     eigenvalues:
       0.500  0.500  0.500
     eigenvectors (columns):
       1.000  0.000  0.000
       0.000  1.000  0.000
       0.000  0.000  1.000
     occupation matrix ns (before diag.):
       0.500  0.000  0.000
       0.000  0.500  0.000
       0.000  0.000  0.500
     ------------------------ ATOM   48 ------------------------
     Tr[ns( 48)] =   3.00000
     eigenvalues:
       0.500  0.500  0.500
     eigenvectors (columns):
       1.000  0.000  0.000
       0.000  1.000  0.000
       0.000  0.000  1.000
     occupation matrix ns (before diag.):
       0.500  0.000  0.000
       0.000  0.500  0.000
       0.000  0.000  0.500
     ------------------------ ATOM   49 ------------------------
     Tr[ns( 49)] =   1.00000
     eigenvalues:
       0.167  0.167  0.167
     eigenvectors (columns):
       1.000  0.000  0.000
       0.000  1.000  0.000
       0.000  0.000  1.000
     occupation matrix ns (before diag.):
       0.167  0.000  0.000
       0.000  0.167  0.000
       0.000  0.000  0.167
     ------------------------ ATOM   50 ------------------------
     Tr[ns( 50)] =   1.00000
     eigenvalues:
       0.167  0.167  0.167
     eigenvectors (columns):
       1.000  0.000  0.000
       0.000  1.000  0.000
       0.000  0.000  1.000
     occupation matrix ns (before diag.):
       0.167  0.000  0.000
       0.000  0.167  0.000
       0.000  0.000  0.167
     ------------------------ ATOM   51 ------------------------
     Tr[ns( 51)] =   1.00000
     eigenvalues:
       0.167  0.167  0.167
     eigenvectors (columns):
       1.000  0.000  0.000
       0.000  1.000  0.000
       0.000  0.000  1.000
     occupation matrix ns (before diag.):
       0.167  0.000  0.000
       0.000  0.167  0.000
       0.000  0.000  0.167
     ------------------------ ATOM   52 ------------------------
     Tr[ns( 52)] =   1.00000
     eigenvalues:
       0.167  0.167  0.167
     eigenvectors (columns):
       1.000  0.000  0.000
       0.000  1.000  0.000
       0.000  0.000  1.000
     occupation matrix ns (before diag.):
       0.167  0.000  0.000
       0.000  0.167  0.000
       0.000  0.000  0.167
     ------------------------ ATOM   53 ------------------------
     Tr[ns( 53)] =   3.00000
     eigenvalues:
       0.500  0.500  0.500
     eigenvectors (columns):
       1.000  0.000  0.000
       0.000  1.000  0.000
       0.000  0.000  1.000
     occupation matrix ns (before diag.):
       0.500  0.000  0.000
       0.000  0.500  0.000
       0.000  0.000  0.500
     ------------------------ ATOM   54 ------------------------
     Tr[ns( 54)] =   3.00000
     eigenvalues:
       0.500  0.500  0.500
     eigenvectors (columns):
       1.000  0.000  0.000
       0.000  1.000  0.000
       0.000  0.000  1.000
     occupation matrix ns (before diag.):
       0.500  0.000  0.000
       0.000  0.500  0.000
       0.000  0.000  0.500
     ------------------------ ATOM   55 ------------------------
     Tr[ns( 55)] =   3.00000
     eigenvalues:
       0.500  0.500  0.500
     eigenvectors (columns):
       1.000  0.000  0.000
       0.000  1.000  0.000
       0.000  0.000  1.000
     occupation matrix ns (before diag.):
       0.500  0.000  0.000
       0.000  0.500  0.000
       0.000  0.000  0.500
     ------------------------ ATOM   56 ------------------------
     Tr[ns( 56)] =   3.00000
     eigenvalues:
       0.500  0.500  0.500
     eigenvectors (columns):
       1.000  0.000  0.000
       0.000  1.000  0.000
       0.000  0.000  1.000
     occupation matrix ns (before diag.):
       0.500  0.000  0.000
       0.000  0.500  0.000
       0.000  0.000  0.500
     ------------------------ ATOM   57 ------------------------
     Tr[ns( 57)] =   1.00000
     eigenvalues:
       0.167  0.167  0.167
     eigenvectors (columns):
       1.000  0.000  0.000
       0.000  1.000  0.000
       0.000  0.000  1.000
     occupation matrix ns (before diag.):
       0.167  0.000  0.000
       0.000  0.167  0.000
       0.000  0.000  0.167
     ------------------------ ATOM   58 ------------------------
     Tr[ns( 58)] =   1.00000
     eigenvalues:
       0.167  0.167  0.167
     eigenvectors (columns):
       1.000  0.000  0.000
       0.000  1.000  0.000
       0.000  0.000  1.000
     occupation matrix ns (before diag.):
       0.167  0.000  0.000
       0.000  0.167  0.000
       0.000  0.000  0.167
     ------------------------ ATOM   59 ------------------------
     Tr[ns( 59)] =   1.00000
     eigenvalues:
       0.167  0.167  0.167
     eigenvectors (columns):
       1.000  0.000  0.000
       0.000  1.000  0.000
       0.000  0.000  1.000
     occupation matrix ns (before diag.):
       0.167  0.000  0.000
       0.000  0.167  0.000
       0.000  0.000  0.167
     ------------------------ ATOM   60 ------------------------
     Tr[ns( 60)] =   1.00000
     eigenvalues:
       0.167  0.167  0.167
     eigenvectors (columns):
       1.000  0.000  0.000
       0.000  1.000  0.000
       0.000  0.000  1.000
     occupation matrix ns (before diag.):
       0.167  0.000  0.000
       0.000  0.167  0.000
       0.000  0.000  0.167
     ------------------------ ATOM   61 ------------------------
     Tr[ns( 61)] =   3.00000
     eigenvalues:
       0.500  0.500  0.500
     eigenvectors (columns):
       1.000  0.000  0.000
       0.000  1.000  0.000
       0.000  0.000  1.000
     occupation matrix ns (before diag.):
       0.500  0.000  0.000
       0.000  0.500  0.000
       0.000  0.000  0.500
     ------------------------ ATOM   62 ------------------------
     Tr[ns( 62)] =   3.00000
     eigenvalues:
       0.500  0.500  0.500
     eigenvectors (columns):
       1.000  0.000  0.000
       0.000  1.000  0.000
       0.000  0.000  1.000
     occupation matrix ns (before diag.):
       0.500  0.000  0.000
       0.000  0.500  0.000
       0.000  0.000  0.500
     ------------------------ ATOM   63 ------------------------
     Tr[ns( 63)] =   3.00000
     eigenvalues:
       0.500  0.500  0.500
     eigenvectors (columns):
       1.000  0.000  0.000
       0.000  1.000  0.000
       0.000  0.000  1.000
     occupation matrix ns (before diag.):
       0.500  0.000  0.000
       0.000  0.500  0.000
       0.000  0.000  0.500
     ------------------------ ATOM   64 ------------------------
     Tr[ns( 64)] =   3.00000
     eigenvalues:
       0.500  0.500  0.500
     eigenvectors (columns):
       1.000  0.000  0.000
       0.000  1.000  0.000
       0.000  0.000  1.000
     occupation matrix ns (before diag.):
       0.500  0.000  0.000
       0.000  0.500  0.000
       0.000  0.000  0.500
     ------------------------ ATOM   65 ------------------------
     Tr[ns( 65)] =   1.00000
     eigenvalues:
       0.167  0.167  0.167
     eigenvectors (columns):
       1.000  0.000  0.000
       0.000  1.000  0.000
       0.000  0.000  1.000
     occupation matrix ns (before diag.):
       0.167  0.000  0.000
       0.000  0.167  0.000
       0.000  0.000  0.167
     ------------------------ ATOM   66 ------------------------
     Tr[ns( 66)] =   1.00000
     eigenvalues:
       0.167  0.167  0.167
     eigenvectors (columns):
       1.000  0.000  0.000
       0.000  1.000  0.000
       0.000  0.000  1.000
     occupation matrix ns (before diag.):
       0.167  0.000  0.000
       0.000  0.167  0.000
       0.000  0.000  0.167
     ------------------------ ATOM   67 ------------------------
     Tr[ns( 67)] =   1.00000
     eigenvalues:
       0.167  0.167  0.167
     eigenvectors (columns):
       1.000  0.000  0.000
       0.000  1.000  0.000
       0.000  0.000  1.000
     occupation matrix ns (before diag.):
       0.167  0.000  0.000
       0.000  0.167  0.000
       0.000  0.000  0.167
     ------------------------ ATOM   68 ------------------------
     Tr[ns( 68)] =   1.00000
     eigenvalues:
       0.167  0.167  0.167
     eigenvectors (columns):
       1.000  0.000  0.000
       0.000  1.000  0.000
       0.000  0.000  1.000
     occupation matrix ns (before diag.):
       0.167  0.000  0.000
       0.000  0.167  0.000
       0.000  0.000  0.167
     ------------------------ ATOM   69 ------------------------
     Tr[ns( 69)] =   3.00000
     eigenvalues:
       0.500  0.500  0.500
     eigenvectors (columns):
       1.000  0.000  0.000
       0.000  1.000  0.000
       0.000  0.000  1.000
     occupation matrix ns (before diag.):
       0.500  0.000  0.000
       0.000  0.500  0.000
       0.000  0.000  0.500
     ------------------------ ATOM   70 ------------------------
     Tr[ns( 70)] =   3.00000
     eigenvalues:
       0.500  0.500  0.500
     eigenvectors (columns):
       1.000  0.000  0.000
       0.000  1.000  0.000
       0.000  0.000  1.000
     occupation matrix ns (before diag.):
       0.500  0.000  0.000
       0.000  0.500  0.000
       0.000  0.000  0.500
     ------------------------ ATOM   71 ------------------------
     Tr[ns( 71)] =   3.00000
     eigenvalues:
       0.500  0.500  0.500
     eigenvectors (columns):
       1.000  0.000  0.000
       0.000  1.000  0.000
       0.000  0.000  1.000
     occupation matrix ns (before diag.):
       0.500  0.000  0.000
       0.000  0.500  0.000
       0.000  0.000  0.500
     ------------------------ ATOM   72 ------------------------
     Tr[ns( 72)] =   3.00000
     eigenvalues:
       0.500  0.500  0.500
     eigenvectors (columns):
       1.000  0.000  0.000
       0.000  1.000  0.000
       0.000  0.000  1.000
     occupation matrix ns (before diag.):
       0.500  0.000  0.000
       0.000  0.500  0.000
       0.000  0.000  0.500
     ------------------------ ATOM   73 ------------------------
     Tr[ns( 73)] =   1.00000
     eigenvalues:
       0.167  0.167  0.167
     eigenvectors (columns):
       1.000  0.000  0.000
       0.000  1.000  0.000
       0.000  0.000  1.000
     occupation matrix ns (before diag.):
       0.167  0.000  0.000
       0.000  0.167  0.000
       0.000  0.000  0.167
     ------------------------ ATOM   74 ------------------------
     Tr[ns( 74)] =   1.00000
     eigenvalues:
       0.167  0.167  0.167
     eigenvectors (columns):
       1.000  0.000  0.000
       0.000  1.000  0.000
       0.000  0.000  1.000
     occupation matrix ns (before diag.):
       0.167  0.000  0.000
       0.000  0.167  0.000
       0.000  0.000  0.167
     ------------------------ ATOM   75 ------------------------
     Tr[ns( 75)] =   1.00000
     eigenvalues:
       0.167  0.167  0.167
     eigenvectors (columns):
       1.000  0.000  0.000
       0.000  1.000  0.000
       0.000  0.000  1.000
     occupation matrix ns (before diag.):
       0.167  0.000  0.000
       0.000  0.167  0.000
       0.000  0.000  0.167
     ------------------------ ATOM   76 ------------------------
     Tr[ns( 76)] =   1.00000
     eigenvalues:
       0.167  0.167  0.167
     eigenvectors (columns):
       1.000  0.000  0.000
       0.000  1.000  0.000
       0.000  0.000  1.000
     occupation matrix ns (before diag.):
       0.167  0.000  0.000
       0.000  0.167  0.000
       0.000  0.000  0.167
     ------------------------ ATOM   77 ------------------------
     Tr[ns( 77)] =   3.00000
     eigenvalues:
       0.500  0.500  0.500
     eigenvectors (columns):
       1.000  0.000  0.000
       0.000  1.000  0.000
       0.000  0.000  1.000
     occupation matrix ns (before diag.):
       0.500  0.000  0.000
       0.000  0.500  0.000
       0.000  0.000  0.500
     ------------------------ ATOM   78 ------------------------
     Tr[ns( 78)] =   3.00000
     eigenvalues:
       0.500  0.500  0.500
     eigenvectors (columns):
       1.000  0.000  0.000
       0.000  1.000  0.000
       0.000  0.000  1.000
     occupation matrix ns (before diag.):
       0.500  0.000  0.000
       0.000  0.500  0.000
       0.000  0.000  0.500
     ------------------------ ATOM   79 ------------------------
     Tr[ns( 79)] =   3.00000
     eigenvalues:
       0.500  0.500  0.500
     eigenvectors (columns):
       1.000  0.000  0.000
       0.000  1.000  0.000
       0.000  0.000  1.000
     occupation matrix ns (before diag.):
       0.500  0.000  0.000
       0.000  0.500  0.000
       0.000  0.000  0.500
     ------------------------ ATOM   80 ------------------------
     Tr[ns( 80)] =   3.00000
     eigenvalues:
       0.500  0.500  0.500
     eigenvectors (columns):
       1.000  0.000  0.000
       0.000  1.000  0.000
       0.000  0.000  1.000
     occupation matrix ns (before diag.):
       0.500  0.000  0.000
       0.000  0.500  0.000
       0.000  0.000  0.500
     ------------------------ ATOM   81 ------------------------
     Tr[ns( 81)] =   1.00000
     eigenvalues:
       0.167  0.167  0.167
     eigenvectors (columns):
       1.000  0.000  0.000
       0.000  1.000  0.000
       0.000  0.000  1.000
     occupation matrix ns (before diag.):
       0.167  0.000  0.000
       0.000  0.167  0.000
       0.000  0.000  0.167
     ------------------------ ATOM   82 ------------------------
     Tr[ns( 82)] =   1.00000
     eigenvalues:
       0.167  0.167  0.167
     eigenvectors (columns):
       1.000  0.000  0.000
       0.000  1.000  0.000
       0.000  0.000  1.000
     occupation matrix ns (before diag.):
       0.167  0.000  0.000
       0.000  0.167  0.000
       0.000  0.000  0.167
     ------------------------ ATOM   83 ------------------------
     Tr[ns( 83)] =   1.00000
     eigenvalues:
       0.167  0.167  0.167
     eigenvectors (columns):
       1.000  0.000  0.000
       0.000  1.000  0.000
       0.000  0.000  1.000
     occupation matrix ns (before diag.):
       0.167  0.000  0.000
       0.000  0.167  0.000
       0.000  0.000  0.167
     ------------------------ ATOM   84 ------------------------
     Tr[ns( 84)] =   1.00000
     eigenvalues:
       0.167  0.167  0.167
     eigenvectors (columns):
       1.000  0.000  0.000
       0.000  1.000  0.000
       0.000  0.000  1.000
     occupation matrix ns (before diag.):
       0.167  0.000  0.000
       0.000  0.167  0.000
       0.000  0.000  0.167
     ------------------------ ATOM   85 ------------------------
     Tr[ns( 85)] =   3.00000
     eigenvalues:
       0.500  0.500  0.500
     eigenvectors (columns):
       1.000  0.000  0.000
       0.000  1.000  0.000
       0.000  0.000  1.000
     occupation matrix ns (before diag.):
       0.500  0.000  0.000
       0.000  0.500  0.000
       0.000  0.000  0.500
     ------------------------ ATOM   86 ------------------------
     Tr[ns( 86)] =   3.00000
     eigenvalues:
       0.500  0.500  0.500
     eigenvectors (columns):
       1.000  0.000  0.000
       0.000  1.000  0.000
       0.000  0.000  1.000
     occupation matrix ns (before diag.):
       0.500  0.000  0.000
       0.000  0.500  0.000
       0.000  0.000  0.500
     ------------------------ ATOM   87 ------------------------
     Tr[ns( 87)] =   3.00000
     eigenvalues:
       0.500  0.500  0.500
     eigenvectors (columns):
       1.000  0.000  0.000
       0.000  1.000  0.000
       0.000  0.000  1.000
     occupation matrix ns (before diag.):
       0.500  0.000  0.000
       0.000  0.500  0.000
       0.000  0.000  0.500
     ------------------------ ATOM   88 ------------------------
     Tr[ns( 88)] =   3.00000
     eigenvalues:
       0.500  0.500  0.500
     eigenvectors (columns):
       1.000  0.000  0.000
       0.000  1.000  0.000
       0.000  0.000  1.000
     occupation matrix ns (before diag.):
       0.500  0.000  0.000
       0.000  0.500  0.000
       0.000  0.000  0.500
     ------------------------ ATOM   89 ------------------------
     Tr[ns( 89)] =   1.00000
     eigenvalues:
       0.167  0.167  0.167
     eigenvectors (columns):
       1.000  0.000  0.000
       0.000  1.000  0.000
       0.000  0.000  1.000
     occupation matrix ns (before diag.):
       0.167  0.000  0.000
       0.000  0.167  0.000
       0.000  0.000  0.167
     ------------------------ ATOM   90 ------------------------
     Tr[ns( 90)] =   1.00000
     eigenvalues:
       0.167  0.167  0.167
     eigenvectors (columns):
       1.000  0.000  0.000
       0.000  1.000  0.000
       0.000  0.000  1.000
     occupation matrix ns (before diag.):
       0.167  0.000  0.000
       0.000  0.167  0.000
       0.000  0.000  0.167
     ------------------------ ATOM   91 ------------------------
     Tr[ns( 91)] =   1.00000
     eigenvalues:
       0.167  0.167  0.167
     eigenvectors (columns):
       1.000  0.000  0.000
       0.000  1.000  0.000
       0.000  0.000  1.000
     occupation matrix ns (before diag.):
       0.167  0.000  0.000
       0.000  0.167  0.000
       0.000  0.000  0.167
     ------------------------ ATOM   92 ------------------------
     Tr[ns( 92)] =   1.00000
     eigenvalues:
       0.167  0.167  0.167
     eigenvectors (columns):
       1.000  0.000  0.000
       0.000  1.000  0.000
       0.000  0.000  1.000
     occupation matrix ns (before diag.):
       0.167  0.000  0.000
       0.000  0.167  0.000
       0.000  0.000  0.167
     ------------------------ ATOM   93 ------------------------
     Tr[ns( 93)] =   3.00000
     eigenvalues:
       0.500  0.500  0.500
     eigenvectors (columns):
       1.000  0.000  0.000
       0.000  1.000  0.000
       0.000  0.000  1.000
     occupation matrix ns (before diag.):
       0.500  0.000  0.000
       0.000  0.500  0.000
       0.000  0.000  0.500
     ------------------------ ATOM   94 ------------------------
     Tr[ns( 94)] =   3.00000
     eigenvalues:
       0.500  0.500  0.500
     eigenvectors (columns):
       1.000  0.000  0.000
       0.000  1.000  0.000
       0.000  0.000  1.000
     occupation matrix ns (before diag.):
       0.500  0.000  0.000
       0.000  0.500  0.000
       0.000  0.000  0.500
     ------------------------ ATOM   95 ------------------------
     Tr[ns( 95)] =   3.00000
     eigenvalues:
       0.500  0.500  0.500
     eigenvectors (columns):
       1.000  0.000  0.000
       0.000  1.000  0.000
       0.000  0.000  1.000
     occupation matrix ns (before diag.):
       0.500  0.000  0.000
       0.000  0.500  0.000
       0.000  0.000  0.500
     ------------------------ ATOM   96 ------------------------
     Tr[ns( 96)] =   3.00000
     eigenvalues:
       0.500  0.500  0.500
     eigenvectors (columns):
       1.000  0.000  0.000
       0.000  1.000  0.000
       0.000  0.000  1.000
     occupation matrix ns (before diag.):
       0.500  0.000  0.000
       0.000  0.500  0.000
       0.000  0.000  0.500
     ------------------------ ATOM   97 ------------------------
     Tr[ns( 97)] =   1.00000
     eigenvalues:
       0.167  0.167  0.167
     eigenvectors (columns):
       1.000  0.000  0.000
       0.000  1.000  0.000
       0.000  0.000  1.000
     occupation matrix ns (before diag.):
       0.167  0.000  0.000
       0.000  0.167  0.000
       0.000  0.000  0.167
     ------------------------ ATOM   98 ------------------------
     Tr[ns( 98)] =   1.00000
     eigenvalues:
       0.167  0.167  0.167
     eigenvectors (columns):
       1.000  0.000  0.000
       0.000  1.000  0.000
       0.000  0.000  1.000
     occupation matrix ns (before diag.):
       0.167  0.000  0.000
       0.000  0.167  0.000
       0.000  0.000  0.167
     ------------------------ ATOM   99 ------------------------
     Tr[ns( 99)] =   1.00000
     eigenvalues:
       0.167  0.167  0.167
     eigenvectors (columns):
       1.000  0.000  0.000
       0.000  1.000  0.000
       0.000  0.000  1.000
     occupation matrix ns (before diag.):
       0.167  0.000  0.000
       0.000  0.167  0.000
       0.000  0.000  0.167
     ------------------------ ATOM  100 ------------------------
     Tr[ns(100)] =   1.00000
     eigenvalues:
       0.167  0.167  0.167
     eigenvectors (columns):
       1.000  0.000  0.000
       0.000  1.000  0.000
       0.000  0.000  1.000
     occupation matrix ns (before diag.):
       0.167  0.000  0.000
       0.000  0.167  0.000
       0.000  0.000  0.167
     ------------------------ ATOM  101 ------------------------
     Tr[ns(101)] =   3.00000
     eigenvalues:
       0.500  0.500  0.500
     eigenvectors (columns):
       1.000  0.000  0.000
       0.000  1.000  0.000
       0.000  0.000  1.000
     occupation matrix ns (before diag.):
       0.500  0.000  0.000
       0.000  0.500  0.000
       0.000  0.000  0.500
     ------------------------ ATOM  102 ------------------------
     Tr[ns(102)] =   3.00000
     eigenvalues:
       0.500  0.500  0.500
     eigenvectors (columns):
       1.000  0.000  0.000
       0.000  1.000  0.000
       0.000  0.000  1.000
     occupation matrix ns (before diag.):
       0.500  0.000  0.000
       0.000  0.500  0.000
       0.000  0.000  0.500
     ------------------------ ATOM  103 ------------------------
     Tr[ns(103)] =   3.00000
     eigenvalues:
       0.500  0.500  0.500
     eigenvectors (columns):
       1.000  0.000  0.000
       0.000  1.000  0.000
       0.000  0.000  1.000
     occupation matrix ns (before diag.):
       0.500  0.000  0.000
       0.000  0.500  0.000
       0.000  0.000  0.500
     ------------------------ ATOM  104 ------------------------
     Tr[ns(104)] =   3.00000
     eigenvalues:
       0.500  0.500  0.500
     eigenvectors (columns):
       1.000  0.000  0.000
       0.000  1.000  0.000
       0.000  0.000  1.000
     occupation matrix ns (before diag.):
       0.500  0.000  0.000
       0.000  0.500  0.000
       0.000  0.000  0.500
     ------------------------ ATOM  105 ------------------------
     Tr[ns(105)] =   1.00000
     eigenvalues:
       0.167  0.167  0.167
     eigenvectors (columns):
       1.000  0.000  0.000
       0.000  1.000  0.000
       0.000  0.000  1.000
     occupation matrix ns (before diag.):
       0.167  0.000  0.000
       0.000  0.167  0.000
       0.000  0.000  0.167
     ------------------------ ATOM  106 ------------------------
     Tr[ns(106)] =   1.00000
     eigenvalues:
       0.167  0.167  0.167
     eigenvectors (columns):
       1.000  0.000  0.000
       0.000  1.000  0.000
       0.000  0.000  1.000
     occupation matrix ns (before diag.):
       0.167  0.000  0.000
       0.000  0.167  0.000
       0.000  0.000  0.167
     ------------------------ ATOM  107 ------------------------
     Tr[ns(107)] =   1.00000
     eigenvalues:
       0.167  0.167  0.167
     eigenvectors (columns):
       1.000  0.000  0.000
       0.000  1.000  0.000
       0.000  0.000  1.000
     occupation matrix ns (before diag.):
       0.167  0.000  0.000
       0.000  0.167  0.000
       0.000  0.000  0.167
     ------------------------ ATOM  108 ------------------------
     Tr[ns(108)] =   1.00000
     eigenvalues:
       0.167  0.167  0.167
     eigenvectors (columns):
       1.000  0.000  0.000
       0.000  1.000  0.000
       0.000  0.000  1.000
     occupation matrix ns (before diag.):
       0.167  0.000  0.000
       0.000  0.167  0.000
       0.000  0.000  0.167
     ------------------------ ATOM  109 ------------------------
     Tr[ns(109)] =   3.00000
     eigenvalues:
       0.500  0.500  0.500
     eigenvectors (columns):
       1.000  0.000  0.000
       0.000  1.000  0.000
       0.000  0.000  1.000
     occupation matrix ns (before diag.):
       0.500  0.000  0.000
       0.000  0.500  0.000
       0.000  0.000  0.500
     ------------------------ ATOM  110 ------------------------
     Tr[ns(110)] =   3.00000
     eigenvalues:
       0.500  0.500  0.500
     eigenvectors (columns):
       1.000  0.000  0.000
       0.000  1.000  0.000
       0.000  0.000  1.000
     occupation matrix ns (before diag.):
       0.500  0.000  0.000
       0.000  0.500  0.000
       0.000  0.000  0.500
     ------------------------ ATOM  111 ------------------------
     Tr[ns(111)] =   3.00000
     eigenvalues:
       0.500  0.500  0.500
     eigenvectors (columns):
       1.000  0.000  0.000
       0.000  1.000  0.000
       0.000  0.000  1.000
     occupation matrix ns (before diag.):
       0.500  0.000  0.000
       0.000  0.500  0.000
       0.000  0.000  0.500
     ------------------------ ATOM  112 ------------------------
     Tr[ns(112)] =   3.00000
     eigenvalues:
       0.500  0.500  0.500
     eigenvectors (columns):
       1.000  0.000  0.000
       0.000  1.000  0.000
       0.000  0.000  1.000
     occupation matrix ns (before diag.):
       0.500  0.000  0.000
       0.000  0.500  0.000
       0.000  0.000  0.500
     ------------------------ ATOM  113 ------------------------
     Tr[ns(113)] =   1.00000
     eigenvalues:
       0.167  0.167  0.167
     eigenvectors (columns):
       1.000  0.000  0.000
       0.000  1.000  0.000
       0.000  0.000  1.000
     occupation matrix ns (before diag.):
       0.167  0.000  0.000
       0.000  0.167  0.000
       0.000  0.000  0.167
     ------------------------ ATOM  114 ------------------------
     Tr[ns(114)] =   1.00000
     eigenvalues:
       0.167  0.167  0.167
     eigenvectors (columns):
       1.000  0.000  0.000
       0.000  1.000  0.000
       0.000  0.000  1.000
     occupation matrix ns (before diag.):
       0.167  0.000  0.000
       0.000  0.167  0.000
       0.000  0.000  0.167
     ------------------------ ATOM  115 ------------------------
     Tr[ns(115)] =   1.00000
     eigenvalues:
       0.167  0.167  0.167
     eigenvectors (columns):
       1.000  0.000  0.000
       0.000  1.000  0.000
       0.000  0.000  1.000
     occupation matrix ns (before diag.):
       0.167  0.000  0.000
       0.000  0.167  0.000
       0.000  0.000  0.167
     ------------------------ ATOM  116 ------------------------
     Tr[ns(116)] =   1.00000
     eigenvalues:
       0.167  0.167  0.167
     eigenvectors (columns):
       1.000  0.000  0.000
       0.000  1.000  0.000
       0.000  0.000  1.000
     occupation matrix ns (before diag.):
       0.167  0.000  0.000
       0.000  0.167  0.000
       0.000  0.000  0.167
     ------------------------ ATOM  117 ------------------------
     Tr[ns(117)] =   3.00000
     eigenvalues:
       0.500  0.500  0.500
     eigenvectors (columns):
       1.000  0.000  0.000
       0.000  1.000  0.000
       0.000  0.000  1.000
     occupation matrix ns (before diag.):
       0.500  0.000  0.000
       0.000  0.500  0.000
       0.000  0.000  0.500
     ------------------------ ATOM  118 ------------------------
     Tr[ns(118)] =   3.00000
     eigenvalues:
       0.500  0.500  0.500
     eigenvectors (columns):
       1.000  0.000  0.000
       0.000  1.000  0.000
       0.000  0.000  1.000
     occupation matrix ns (before diag.):
       0.500  0.000  0.000
       0.000  0.500  0.000
       0.000  0.000  0.500
     ------------------------ ATOM  119 ------------------------
     Tr[ns(119)] =   3.00000
     eigenvalues:
       0.500  0.500  0.500
     eigenvectors (columns):
       1.000  0.000  0.000
       0.000  1.000  0.000
       0.000  0.000  1.000
     occupation matrix ns (before diag.):
       0.500  0.000  0.000
       0.000  0.500  0.000
       0.000  0.000  0.500
     ------------------------ ATOM  120 ------------------------
     Tr[ns(120)] =   3.00000
     eigenvalues:
       0.500  0.500  0.500
     eigenvectors (columns):
       1.000  0.000  0.000
       0.000  1.000  0.000
       0.000  0.000  1.000
     occupation matrix ns (before diag.):
       0.500  0.000  0.000
       0.000  0.500  0.000
       0.000  0.000  0.500
     ------------------------ ATOM  121 ------------------------
     Tr[ns(121)] =   1.00000
     eigenvalues:
       0.167  0.167  0.167
     eigenvectors (columns):
       1.000  0.000  0.000
       0.000  1.000  0.000
       0.000  0.000  1.000
     occupation matrix ns (before diag.):
       0.167  0.000  0.000
       0.000  0.167  0.000
       0.000  0.000  0.167
     ------------------------ ATOM  122 ------------------------
     Tr[ns(122)] =   1.00000
     eigenvalues:
       0.167  0.167  0.167
     eigenvectors (columns):
       1.000  0.000  0.000
       0.000  1.000  0.000
       0.000  0.000  1.000
     occupation matrix ns (before diag.):
       0.167  0.000  0.000
       0.000  0.167  0.000
       0.000  0.000  0.167
     ------------------------ ATOM  123 ------------------------
     Tr[ns(123)] =   1.00000
     eigenvalues:
       0.167  0.167  0.167
     eigenvectors (columns):
       1.000  0.000  0.000
       0.000  1.000  0.000
       0.000  0.000  1.000
     occupation matrix ns (before diag.):
       0.167  0.000  0.000
       0.000  0.167  0.000
       0.000  0.000  0.167
     ------------------------ ATOM  124 ------------------------
     Tr[ns(124)] =   1.00000
     eigenvalues:
       0.167  0.167  0.167
     eigenvectors (columns):
       1.000  0.000  0.000
       0.000  1.000  0.000
       0.000  0.000  1.000
     occupation matrix ns (before diag.):
       0.167  0.000  0.000
       0.000  0.167  0.000
       0.000  0.000  0.167
     ------------------------ ATOM  125 ------------------------
     Tr[ns(125)] =   3.00000
     eigenvalues:
       0.500  0.500  0.500
     eigenvectors (columns):
       1.000  0.000  0.000
       0.000  1.000  0.000
       0.000  0.000  1.000
     occupation matrix ns (before diag.):
       0.500  0.000  0.000
       0.000  0.500  0.000
       0.000  0.000  0.500
     ------------------------ ATOM  126 ------------------------
     Tr[ns(126)] =   3.00000
     eigenvalues:
       0.500  0.500  0.500
     eigenvectors (columns):
       1.000  0.000  0.000
       0.000  1.000  0.000
       0.000  0.000  1.000
     occupation matrix ns (before diag.):
       0.500  0.000  0.000
       0.000  0.500  0.000
       0.000  0.000  0.500
     ------------------------ ATOM  127 ------------------------
     Tr[ns(127)] =   3.00000
     eigenvalues:
       0.500  0.500  0.500
     eigenvectors (columns):
       1.000  0.000  0.000
       0.000  1.000  0.000
       0.000  0.000  1.000
     occupation matrix ns (before diag.):
       0.500  0.000  0.000
       0.000  0.500  0.000
       0.000  0.000  0.500
     ------------------------ ATOM  128 ------------------------
     Tr[ns(128)] =   3.00000
     eigenvalues:
       0.500  0.500  0.500
     eigenvectors (columns):
       1.000  0.000  0.000
       0.000  1.000  0.000
       0.000  0.000  1.000
     occupation matrix ns (before diag.):
       0.500  0.000  0.000
       0.000  0.500  0.000
       0.000  0.000  0.500
     ------------------------ ATOM  129 ------------------------
     Tr[ns(129)] =   1.00000
     eigenvalues:
       0.167  0.167  0.167
     eigenvectors (columns):
       1.000  0.000  0.000
       0.000  1.000  0.000
       0.000  0.000  1.000
     occupation matrix ns (before diag.):
       0.167  0.000  0.000
       0.000  0.167  0.000
       0.000  0.000  0.167
     ------------------------ ATOM  130 ------------------------
     Tr[ns(130)] =   1.00000
     eigenvalues:
       0.167  0.167  0.167
     eigenvectors (columns):
       1.000  0.000  0.000
       0.000  1.000  0.000
       0.000  0.000  1.000
     occupation matrix ns (before diag.):
       0.167  0.000  0.000
       0.000  0.167  0.000
       0.000  0.000  0.167
     ------------------------ ATOM  131 ------------------------
     Tr[ns(131)] =   1.00000
     eigenvalues:
       0.167  0.167  0.167
     eigenvectors (columns):
       1.000  0.000  0.000
       0.000  1.000  0.000
       0.000  0.000  1.000
     occupation matrix ns (before diag.):
       0.167  0.000  0.000
       0.000  0.167  0.000
       0.000  0.000  0.167
     ------------------------ ATOM  132 ------------------------
     Tr[ns(132)] =   1.00000
     eigenvalues:
       0.167  0.167  0.167
     eigenvectors (columns):
       1.000  0.000  0.000
       0.000  1.000  0.000
       0.000  0.000  1.000
     occupation matrix ns (before diag.):
       0.167  0.000  0.000
       0.000  0.167  0.000
       0.000  0.000  0.167
     ------------------------ ATOM  133 ------------------------
     Tr[ns(133)] =   3.00000
     eigenvalues:
       0.500  0.500  0.500
     eigenvectors (columns):
       1.000  0.000  0.000
       0.000  1.000  0.000
       0.000  0.000  1.000
     occupation matrix ns (before diag.):
       0.500  0.000  0.000
       0.000  0.500  0.000
       0.000  0.000  0.500
     ------------------------ ATOM  134 ------------------------
     Tr[ns(134)] =   3.00000
     eigenvalues:
       0.500  0.500  0.500
     eigenvectors (columns):
       1.000  0.000  0.000
       0.000  1.000  0.000
       0.000  0.000  1.000
     occupation matrix ns (before diag.):
       0.500  0.000  0.000
       0.000  0.500  0.000
       0.000  0.000  0.500
     ------------------------ ATOM  135 ------------------------
     Tr[ns(135)] =   3.00000
     eigenvalues:
       0.500  0.500  0.500
     eigenvectors (columns):
       1.000  0.000  0.000
       0.000  1.000  0.000
       0.000  0.000  1.000
     occupation matrix ns (before diag.):
       0.500  0.000  0.000
       0.000  0.500  0.000
       0.000  0.000  0.500
     ------------------------ ATOM  136 ------------------------
     Tr[ns(136)] =   3.00000
     eigenvalues:
       0.500  0.500  0.500
     eigenvectors (columns):
       1.000  0.000  0.000
       0.000  1.000  0.000
       0.000  0.000  1.000
     occupation matrix ns (before diag.):
       0.500  0.000  0.000
       0.000  0.500  0.000
       0.000  0.000  0.500
     ------------------------ ATOM  137 ------------------------
     Tr[ns(137)] =   1.00000
     eigenvalues:
       0.167  0.167  0.167
     eigenvectors (columns):
       1.000  0.000  0.000
       0.000  1.000  0.000
       0.000  0.000  1.000
     occupation matrix ns (before diag.):
       0.167  0.000  0.000
       0.000  0.167  0.000
       0.000  0.000  0.167
     ------------------------ ATOM  138 ------------------------
     Tr[ns(138)] =   1.00000
     eigenvalues:
       0.167  0.167  0.167
     eigenvectors (columns):
       1.000  0.000  0.000
       0.000  1.000  0.000
       0.000  0.000  1.000
     occupation matrix ns (before diag.):
       0.167  0.000  0.000
       0.000  0.167  0.000
       0.000  0.000  0.167
     ------------------------ ATOM  139 ------------------------
     Tr[ns(139)] =   1.00000
     eigenvalues:
       0.167  0.167  0.167
     eigenvectors (columns):
       1.000  0.000  0.000
       0.000  1.000  0.000
       0.000  0.000  1.000
     occupation matrix ns (before diag.):
       0.167  0.000  0.000
       0.000  0.167  0.000
       0.000  0.000  0.167
     ------------------------ ATOM  140 ------------------------
     Tr[ns(140)] =   1.00000
     eigenvalues:
       0.167  0.167  0.167
     eigenvectors (columns):
       1.000  0.000  0.000
       0.000  1.000  0.000
       0.000  0.000  1.000
     occupation matrix ns (before diag.):
       0.167  0.000  0.000
       0.000  0.167  0.000
       0.000  0.000  0.167
     ------------------------ ATOM  141 ------------------------
     Tr[ns(141)] =   3.00000
     eigenvalues:
       0.500  0.500  0.500
     eigenvectors (columns):
       1.000  0.000  0.000
       0.000  1.000  0.000
       0.000  0.000  1.000
     occupation matrix ns (before diag.):
       0.500  0.000  0.000
       0.000  0.500  0.000
       0.000  0.000  0.500
     ------------------------ ATOM  142 ------------------------
     Tr[ns(142)] =   3.00000
     eigenvalues:
       0.500  0.500  0.500
     eigenvectors (columns):
       1.000  0.000  0.000
       0.000  1.000  0.000
       0.000  0.000  1.000
     occupation matrix ns (before diag.):
       0.500  0.000  0.000
       0.000  0.500  0.000
       0.000  0.000  0.500
     ------------------------ ATOM  143 ------------------------
     Tr[ns(143)] =   3.00000
     eigenvalues:
       0.500  0.500  0.500
     eigenvectors (columns):
       1.000  0.000  0.000
       0.000  1.000  0.000
       0.000  0.000  1.000
     occupation matrix ns (before diag.):
       0.500  0.000  0.000
       0.000  0.500  0.000
       0.000  0.000  0.500
     ------------------------ ATOM  144 ------------------------
     Tr[ns(144)] =   3.00000
     eigenvalues:
       0.500  0.500  0.500
     eigenvectors (columns):
       1.000  0.000  0.000
       0.000  1.000  0.000
       0.000  0.000  1.000
     occupation matrix ns (before diag.):
       0.500  0.000  0.000
       0.000  0.500  0.000
       0.000  0.000  0.500
     ------------------------ ATOM  145 ------------------------
     Tr[ns(145)] =   1.00000
     eigenvalues:
       0.167  0.167  0.167
     eigenvectors (columns):
       1.000  0.000  0.000
       0.000  1.000  0.000
       0.000  0.000  1.000
     occupation matrix ns (before diag.):
       0.167  0.000  0.000
       0.000  0.167  0.000
       0.000  0.000  0.167
     ------------------------ ATOM  146 ------------------------
     Tr[ns(146)] =   1.00000
     eigenvalues:
       0.167  0.167  0.167
     eigenvectors (columns):
       1.000  0.000  0.000
       0.000  1.000  0.000
       0.000  0.000  1.000
     occupation matrix ns (before diag.):
       0.167  0.000  0.000
       0.000  0.167  0.000
       0.000  0.000  0.167
     ------------------------ ATOM  147 ------------------------
     Tr[ns(147)] =   1.00000
     eigenvalues:
       0.167  0.167  0.167
     eigenvectors (columns):
       1.000  0.000  0.000
       0.000  1.000  0.000
       0.000  0.000  1.000
     occupation matrix ns (before diag.):
       0.167  0.000  0.000
       0.000  0.167  0.000
       0.000  0.000  0.167
     ------------------------ ATOM  148 ------------------------
     Tr[ns(148)] =   1.00000
     eigenvalues:
       0.167  0.167  0.167
     eigenvectors (columns):
       1.000  0.000  0.000
       0.000  1.000  0.000
       0.000  0.000  1.000
     occupation matrix ns (before diag.):
       0.167  0.000  0.000
       0.000  0.167  0.000
       0.000  0.000  0.167
     ------------------------ ATOM  149 ------------------------
     Tr[ns(149)] =   3.00000
     eigenvalues:
       0.500  0.500  0.500
     eigenvectors (columns):
       1.000  0.000  0.000
       0.000  1.000  0.000
       0.000  0.000  1.000
     occupation matrix ns (before diag.):
       0.500  0.000  0.000
       0.000  0.500  0.000
       0.000  0.000  0.500
     ------------------------ ATOM  150 ------------------------
     Tr[ns(150)] =   3.00000
     eigenvalues:
       0.500  0.500  0.500
     eigenvectors (columns):
       1.000  0.000  0.000
       0.000  1.000  0.000
       0.000  0.000  1.000
     occupation matrix ns (before diag.):
       0.500  0.000  0.000
       0.000  0.500  0.000
       0.000  0.000  0.500
     ------------------------ ATOM  151 ------------------------
     Tr[ns(151)] =   3.00000
     eigenvalues:
       0.500  0.500  0.500
     eigenvectors (columns):
       1.000  0.000  0.000
       0.000  1.000  0.000
       0.000  0.000  1.000
     occupation matrix ns (before diag.):
       0.500  0.000  0.000
       0.000  0.500  0.000
       0.000  0.000  0.500
     ------------------------ ATOM  152 ------------------------
[...]
   -20.6065 -20.6065 -20.6065 -20.6064 -20.6064 -20.6063 -20.6062 -20.6062
   -20.6061 -20.6061 -20.6061 -20.6059 -20.6058 -20.6058 -20.6057 -20.6057
   -20.6056 -20.6055 -20.6054 -20.6053 -20.6053 -20.6052 -20.6051 -20.6051
   -20.6049 -20.6046 -20.6046 -20.6045 -20.6045 -20.6045 -20.6044 -20.6043
   -20.6043 -20.6041 -20.6041 -20.6040 -20.6038 -20.6036 -20.6034 -20.6034
   -20.6033 -20.6033 -20.6031 -20.6030 -20.6025 -20.6025 -20.6024 -20.6024
   -20.6023 -20.6022 -20.6022 -20.6021 -20.6020 -20.6018 -20.6016 -20.6016
   -20.6014 -20.6014 -20.6012 -20.6011 -20.6011 -20.6011 -20.6010 -20.6008
   -20.6008 -20.6006 -20.6006 -20.6004 -20.6003 -20.6002 -20.6000 -20.6000
   -20.5999 -20.5997 -20.5996 -20.5993 -20.5992 -20.5992 -20.5991 -20.5988
   -20.5986 -20.5984 -20.5983 -20.5982 -20.5982 -20.5980 -20.5979 -20.5978
   -20.5977 -20.5976 -20.5976 -20.5974 -20.5973 -20.5972 -20.5967 -20.5965
   -20.5964 -20.5963 -20.5963 -20.5962 -20.5961 -20.5961 -20.5958 -20.5957
   -20.5956 -20.5952 -20.5952 -20.5952 -20.5946 -20.5944 -20.5943 -20.5941
   -20.5940 -20.5936 -20.5933 -20.5933 -20.5932 -20.5931 -20.5930 -20.5926
   -20.5925 -20.5925 -20.5923 -20.5921 -20.5921 -20.5921 -20.5919 -20.5918
   -20.5917 -20.5910 -20.5910 -20.5910 -20.5910 -20.5907 -20.5904 -20.5904
   -20.5901 -20.5900 -20.5900 -20.5895 -20.5895 -20.5895 -20.5894 -20.5893
   -20.5893 -20.5890 -20.5890 -20.5886 -20.5885 -20.5884 -20.5883 -20.5881
   -20.5881 -20.5879 -20.5878 -20.5876 -20.5876 -20.5875 -20.5873 -20.5870
   -20.5869 -20.5865 -20.5862 -20.5861 -20.5860 -20.5859 -20.5857 -20.5850
   -20.5846 -20.5846 -20.5842 -20.5839 -20.5837 -20.5836 -20.5835 -20.5835
   -20.5829 -20.5826 -20.5824 -20.5824 -20.5824 -20.5819 -20.5817 -20.5815
   -20.5804 -20.5803 -20.5796 -20.5790 -20.5787 -20.5781 -20.5779 -20.5778
   -20.5756 -20.5754 -20.5747 -20.5742 -20.5737 -20.5727 -20.5722 -20.5708
   -20.5707 -20.5701 -20.5693 -20.5677  -7.5521  -7.5472  -7.5411  -7.5386
    -7.5367  -7.5353  -7.5347  -7.5335  -7.5315  -7.5310  -7.5292  -7.5284
    -7.5230  -7.5229  -7.5212  -7.5177  -7.5172  -7.5154  -7.5134  -7.5127
    -7.5103  -7.5092  -7.5075  -7.5056  -7.5040  -7.5036  -7.5025  -7.5003
    -7.4993  -7.4976  -7.4964  -7.4931  -7.4865  -7.4856  -7.4838  -7.4829
    -7.4809  -7.4798  -7.4777  -7.4769  -7.4763  -7.4758  -7.4751  -7.4740
    -7.4735  -7.4731  -7.4727  -7.4708  -7.4698  -7.4687  -7.4681  -7.4678
    -7.4663  -7.4654  -7.4651  -7.4643  -7.4634  -7.4632  -7.4626  -7.4619
    -7.4611  -7.4603  -7.4601  -7.4592  -7.4587  -7.4582  -7.4580  -7.4579
    -7.4573  -7.4571  -7.4567  -7.4560  -7.4553  -7.4549  -7.4546  -7.4541
    -7.4530  -7.4528  -7.4523  -7.4515  -7.4514  -7.4510  -7.4497  -7.4494
    -7.4490  -7.4486  -7.4479  -7.4474  -7.4473  -7.4465  -7.4462  -7.4457
    -7.4452  -7.4448  -7.4447  -7.4442  -7.4435  -7.4431  -7.4428  -7.4425
    -7.4422  -7.4419  -7.4414  -7.4408  -7.4405  -7.4396  -7.4395  -7.4387
    -7.4383  -7.4380  -7.4375  -7.4373  -7.4365  -7.4362  -7.4358  -7.4351
    -7.4346  -7.4340  -7.4335  -7.4335  -7.4333  -7.4328  -7.4325  -7.4323
    -7.4317  -7.4310  -7.4310  -7.4303  -7.4298  -7.4295  -7.4290  -7.4284
    -7.4281  -7.4276  -7.4271  -7.4269  -7.4265  -7.4257  -7.4255  -7.4255
    -7.4249  -7.4244  -7.4243  -7.4239  -7.4237  -7.4233  -7.4231  -7.4227
    -7.4223  -7.4220  -7.4217  -7.4212  -7.4209  -7.4206  -7.4206  -7.4197
    -7.4193  -7.4189  -7.4184  -7.4183  -7.4179  -7.4178  -7.4173  -7.4170
    -7.4168  -7.4163  -7.4162  -7.4154  -7.4153  -7.4151  -7.4148  -7.4144
    -7.4141  -7.4134  -7.4132  -7.4129  -7.4125  -7.4122  -7.4117  -7.4117
    -7.4111  -7.4109  -7.4107  -7.4102  -7.4097  -7.4095  -7.4092  -7.4090
    -7.4086  -7.4083  -7.4080  -7.4076  -7.4074  -7.4071  -7.4069  -7.4064
    -7.4059  -7.4057  -7.4054  -7.4051  -7.4047  -7.4045  -7.4039  -7.4038
    -7.4032  -7.4030  -7.4029  -7.4027  -7.4022  -7.4019  -7.4016  -7.4012
    -7.4009  -7.4002  -7.4000  -7.4000  -7.3997  -7.3995  -7.3985  -7.3982
    -7.3976  -7.3974  -7.3969  -7.3968  -7.3964  -7.3962  -7.3957  -7.3950
    -7.3949  -7.3946  -7.3940  -7.3940  -7.3937  -7.3935  -7.3932  -7.3928
    -7.3925  -7.3922  -7.3920  -7.3916  -7.3914  -7.3913  -7.3908  -7.3905
    -7.3900  -7.3898  -7.3896  -7.3890  -7.3889  -7.3887  -7.3883  -7.3883
    -7.3876  -7.3874  -7.3868  -7.3867  -7.3863  -7.3862  -7.3861  -7.3856
    -7.3853  -7.3849  -7.3846  -7.3842  -7.3839  -7.3839  -7.3833  -7.3831
    -7.3826  -7.3823  -7.3820  -7.3817  -7.3814  -7.3809  -7.3809  -7.3807
    -7.3804  -7.3803  -7.3800  -7.3796  -7.3792  -7.3789  -7.3787  -7.3784
    -7.3780  -7.3775  -7.3773  -7.3771  -7.3766  -7.3766  -7.3762  -7.3757
    -7.3753  -7.3752  -7.3750  -7.3747  -7.3740  -7.3736  -7.3734  -7.3731
    -7.3731  -7.3728  -7.3721  -7.3719  -7.3718  -7.3714  -7.3713  -7.3710
    -7.3706  -7.3702  -7.3697  -7.3694  -7.3691  -7.3687  -7.3685  -7.3683
    -7.3679  -7.3677  -7.3674  -7.3668  -7.3662  -7.3660  -7.3659  -7.3657
    -7.3652  -7.3650  -7.3648  -7.3643  -7.3641  -7.3637  -7.3635  -7.3630
    -7.3629  -7.3625  -7.3621  -7.3619  -7.3609  -7.3609  -7.3605  -7.3602
    -7.3599  -7.3597  -7.3594  -7.3591  -7.3588  -7.3585  -7.3583  -7.3581
    -7.3576  -7.3572  -7.3570  -7.3566  -7.3562  -7.3561  -7.3558  -7.3554
    -7.3551  -7.3549  -7.3544  -7.3538  -7.3535  -7.3528  -7.3525  -7.3524
    -7.3519  -7.3516  -7.3513  -7.3510  -7.3504  -7.3501  -7.3499  -7.3494
    -7.3493  -7.3491  -7.3489  -7.3486  -7.3484  -7.3476  -7.3472  -7.3465
    -7.3461  -7.3458  -7.3455  -7.3452  -7.3446  -7.3446  -7.3444  -7.3437
    -7.3435  -7.3433  -7.3425  -7.3423  -7.3419  -7.3413  -7.3410  -7.3404
    -7.3397  -7.3394  -7.3392  -7.3386  -7.3382  -7.3379  -7.3377  -7.3371
    -7.3368  -7.3366  -7.3364  -7.3360  -7.3356  -7.3352  -7.3349  -7.3347
    -7.3345  -7.3341  -7.3339  -7.3338  -7.3329  -7.3326  -7.3321  -7.3318
    -7.3318  -7.3315  -7.3313  -7.3308  -7.3306  -7.3302  -7.3300  -7.3298
    -7.3296  -7.3293  -7.3288  -7.3287  -7.3284  -7.3278  -7.3274  -7.3272
    -7.3270  -7.3266  -7.3265  -7.3262  -7.3257  -7.3254  -7.3251  -7.3246
    -7.3244  -7.3241  -7.3238  -7.3232  -7.3232  -7.3228  -7.3227  -7.3223
    -7.3222  -7.3216  -7.3213  -7.3206  -7.3203  -7.3201  -7.3196  -7.3192
    -7.3187  -7.3186  -7.3177  -7.3174  -7.3173  -7.3171  -7.3169  -7.3167
    -7.3164  -7.3161  -7.3153  -7.3152  -7.3148  -7.3147  -7.3144  -7.3143
    -7.3139  -7.3136  -7.3134  -7.3129  -7.3128  -7.3124  -7.3118  -7.3116
    -7.3110  -7.3106  -7.3099  -7.3094  -7.3092  -7.3084  -7.3083  -7.3082
    -7.3077  -7.3074  -7.3071  -7.3060  -7.3060  -7.3054  -7.3051  -7.3049
    -7.3047  -7.3042  -7.3034  -7.3033  -7.3026  -7.3025  -7.3022  -7.3021
    -7.3018  -7.3015  -7.3014  -7.3005  -7.2994  -7.2991  -7.2986  -7.2983
    -7.2973  -7.2948  -7.2938  -7.2926  -7.2917  -7.2905  -7.2898  -7.2890
    -7.2883  -7.2872  -7.2859  -7.2839  -7.2822  -7.2808  -7.2803  -7.2781
    -7.2779  -7.2767  -7.2728  -7.2716  -7.2712  -7.2673  -7.2494  -7.2456
    -3.5532  -3.4216  -3.4057  -3.3107  -3.2943  -3.2828  -3.2541  -3.2117
    -3.1917  -3.1239  -3.0973  -3.0660  -3.0235  -2.9859  -2.9460  -2.9189
    -2.8908  -2.8573  -2.8299  -2.7879  -2.7450  -2.7336  -2.7230  -2.7001
    -2.6489  -2.6241  -2.6044  -2.5769  -2.5078  -2.4617  -2.4144  -2.3843
    -2.3426  -2.2913  -2.2395  -2.2175  -2.1793  -2.1752  -2.1542  -2.1323
    -2.0937  -2.0634  -2.0489  -2.0242  -2.0006  -1.9808  -1.9530  -1.9177
    -1.9126  -1.8937  -1.8733  -1.8404  -1.8241  -1.7965  -1.7874  -1.7720
    -1.7541  -1.7287  -1.7038  -1.6700  -1.6509  -1.6363  -1.6126  -1.5960
    -1.5908  -1.5584  -1.5472  -1.5298  -1.5079  -1.4929  -1.4796  -1.4617
    -1.4272  -1.4145  -1.3858  -1.3742  -1.3485  -1.3441  -1.3361  -1.3253
    -1.2930  -1.2773  -1.2710  -1.2518  -1.2473  -1.2253  -1.2067  -1.1769
    -1.1686  -1.1547  -1.1474  -1.1394  -1.1317  -1.1154  -1.1072  -1.1046
    -1.0775  -1.0699  -1.0423  -1.0296  -1.0107  -0.9940  -0.9866  -0.9731
    -0.9052  -0.8529  -0.8364  -0.8078   0.3739   0.4135   0.4281   0.4532
     0.6659   0.6832   0.7059   0.7122   0.7171   0.7184   0.7294   0.7315
     0.7383   0.7417   0.7516   0.7538   0.7590   0.7669   0.7788   0.7802
     0.7808   0.7846   0.7886   0.7927   0.8027   0.8095   0.8140   0.8232
     0.8256   0.8301   0.8337   0.8468   0.8537   0.8592   0.8632   0.8722
     0.8805   0.8832   0.8912   0.8990   0.9107   0.9150   0.9170   0.9340
     0.9443   0.9461   0.9553   0.9578   0.9605   0.9682   0.9764   0.9814
     0.9847   0.9880   0.9897   1.0020   1.0041   1.0097   1.0155   1.0196
     1.5406   1.5554   1.5778   1.6034   1.6423   1.6714   1.6760   1.7033
     1.7084   1.7323   1.7539   1.7688   1.8107   1.8593   1.8763   1.8856
     1.9057   1.9130   1.9196   1.9307   1.9400   1.9522   1.9660   1.9771
     1.9810   1.9880   1.9950   2.0092   2.7505   2.8155   2.8175   2.8360
     2.8802   2.9074   2.9235   2.9527   3.3269   3.3638   3.3702   3.3804
     3.3870   3.4052   3.4208   3.4252   3.4389   3.4532   3.4577   3.4615
     3.4922   3.5018   3.5159   3.5500   3.6010   3.6028   3.6104   3.6243
     3.6311   3.6438   3.6447   3.6599   3.6692   3.6727   3.6749   3.6852
     3.6889   3.7015   3.7048   3.7222   3.7673   3.7819   3.7876   3.8028
     3.8338   3.8421   3.8537   3.8736   3.8791   3.8864   3.8884   3.9048
     3.9104   3.9191   3.9237   3.9358   3.9436   3.9494   3.9559   3.9615
     3.9653   3.9715   3.9786   3.9990   4.2132   4.2243   4.2626   4.2947
     4.3079   4.3225   4.3321   4.3487   4.3828   4.3944   4.4070   4.4158
     4.4246   4.4292   4.4411   4.4484   4.4564   4.4649   4.4844   4.4884
     4.4988   4.5066   4.5099   4.5178   4.5422   4.5494   4.5569   4.5615
     4.5695   4.5758   4.5879   4.5960   4.6119   4.6245   4.6327   4.6491
     4.6742   4.6856   4.7026   4.7213   4.7275   4.7365   4.7521   4.7649
     4.7769   4.7930   4.8048   4.8097   4.8227   4.8276   4.8394   4.8495
     4.8594   4.8700   4.8787   4.8823   4.9026   4.9058   4.9144   4.9192
     4.9273   4.9393   4.9413   4.9562   4.9634   4.9680   4.9796   4.9924
     5.0071   5.0220   5.0340   5.0364   5.0382   5.0493   5.0586   5.0834
     5.0853   5.0948   5.0973   5.1093   5.1183   5.1252   5.1346   5.1429
     5.1521   5.1591   5.1706   5.1813   5.1925   5.2161   5.2366   5.2422
     5.2758   5.2891   5.2987   5.3104   5.3188   5.3370   5.3418   5.3597
     5.3694   5.3721   5.3854   5.3927   5.3977   5.4118   5.4315   5.4462
     5.4489   5.4592   5.4772   5.5059   5.5753   5.5847   5.5939   5.6035
     5.6369   5.6399   5.6492   5.6892   5.7161   5.7360   5.7590   5.7618
     5.7708   5.7878   5.8013   5.8056   5.8177   5.8216   5.8408   5.8475
     5.8558   5.8620   5.8755   5.8799   5.8993   5.9045   5.9235   5.9247
     5.9336   5.9392   5.9425   5.9648   5.9733   5.9895   6.0126   6.0225
     6.0525   6.0798   6.1099   6.1158   6.1176   6.1351   6.1468   6.1528
     6.1684   6.1824   6.1956   6.2014   6.2133   6.2320   6.2538   6.2669
     6.3348   6.3867   6.4070   6.4454   6.7634   6.7981   6.8190   6.8798
     8.2459   8.2869   8.3237   8.3619   8.3794   8.4106   8.4444   8.4533
     8.4917   8.4979   8.5403   8.5451   8.6606   8.6967   8.7410   8.7530
     8.7714   8.8268   8.8453   8.8717   8.9274   8.9586   8.9835   9.0004
     9.0121   9.0153   9.0315   9.0346   9.0464   9.0750   9.0783   9.0944
     9.0971   9.1029   9.1135   9.1225   9.1352   9.1466   9.1481   9.1526
     9.1700   9.1786   9.1821   9.1903   9.1967   9.2051   9.2269   9.2396
     9.2482   9.2534   9.2566   9.2660   9.2718   9.2830   9.2952   9.3145
     9.3251   9.3432   9.3630   9.3732   9.3817   9.3958   9.4091   9.4207
     9.4315   9.4411   9.4508   9.4566   9.4567   9.4767   9.4807   9.4925
     9.4992   9.4997   9.5099   9.5179   9.5216   9.5305   9.5373   9.5485
     9.5602   9.5704   9.5712   9.5732   9.5804   9.5872   9.5911   9.6082
     9.6197   9.6219   9.6309   9.6392   9.6472   9.6590   9.6652   9.6747
     9.6830   9.6869   9.6914   9.6966   9.6989   9.7114   9.7193   9.7280
     9.7333   9.7533   9.7669   9.7833  10.0920  10.1149  10.1179  10.1245
    10.1638  10.1763  10.1895  10.1964  10.2174  10.2202  10.2348  10.2542
    10.3149  10.3249  10.3278  10.3536  10.3845  10.3948  10.4076  10.4139
    10.4349  10.4431  10.4566  10.4811  10.4940  10.5118  10.5161  10.5514
    10.6476  10.6617  10.6690  10.6918  10.6976  10.7061  10.7173  10.7237
    10.7386  10.7628  10.7755  10.7867  10.8103  10.8325  10.8450  10.8474
    10.9571  10.9643  10.9903  11.0074  11.0103  11.0126  11.0226  11.0294
    11.0338  11.0419  11.0571  11.0663  11.0677  11.0740  11.0788  11.1139
    11.1243  11.1276  11.1511  11.1593  11.1689  11.1751  11.1862  11.2001
    11.2050  11.2134  11.2183  11.2302  11.2353  11.2396  11.2465  11.2599
    11.2650  11.2663  11.2772  11.2807  11.2952  11.3055  11.3111  11.3140
    11.3219  11.3269  11.3310  11.3331  11.3367  11.3435  11.3599  11.3627
    11.3659  11.3887  11.3938  11.4031  11.4087  11.4143  11.4260  11.4294
    11.4384  11.4412  11.4465  11.4885  11.5681  11.5890  11.6110  11.6133
    11.6228  11.6317  11.6372  11.6473  11.6573  11.6653  11.6698  11.6960
    11.7008  11.7112  11.7299  11.7430  11.7504  11.7565  11.7640  11.7736
    11.7809  11.7902  11.8014  11.8200  11.8254  11.8542  11.8593  11.8772
    11.8811  11.8857  11.8901  11.8984  11.9279  11.9533  11.9620  11.9751
    11.9873  12.0085  12.0126  12.0275  12.0376  12.0496  12.0541  12.0757
    12.0784  12.0886  12.0967  12.1036  12.1084  12.1122  12.1214  12.1293
    12.1411  12.1460  12.1514  12.1627  12.1698  12.1762  12.1892  12.1909
    12.1993  12.2105  12.2292  12.2404  12.2637  12.2834  12.3003  12.3192
    12.3316  12.3335  12.3601  12.3705  12.3875  12.3894  12.3999  12.4171
    12.4254  12.4438  12.4580  12.4710  12.4873  12.4981  12.5100  12.5225
    12.5246  12.5358  12.5463  12.5497  12.5560  12.5574  12.5703  12.5793
    12.5852  12.5958  12.6035  12.6082  12.6102  12.6189  12.6263  12.6321
    12.6365  12.6392  12.6518  12.6542  12.6651  12.6701  12.6791  12.6821
    12.6885  12.6964  12.7103  12.7251  12.7270  12.7387  12.7467  12.7522
    12.7609  12.7685  12.7764  12.7813  12.7905  12.7933  12.7989  12.8144
    12.8191  12.8238  12.8361  12.8459  12.8522  12.8599  12.8675  12.8755
    12.8858  12.8996  12.9152  12.9354  12.9401  12.9424  12.9590  12.9656
    13.2861  13.2916  13.3069  13.3132  13.3380  13.3458  13.3693  13.3797
    13.3834  13.3941  13.4149  13.4483  13.4552  13.4804  13.5038  13.5541
    13.5605  13.5760  13.5858  13.5925  13.6059  13.6280  13.6374  13.6498
    13.6546  13.6718  13.6794  13.6813  13.6887  13.6941  13.7235  13.7361
    13.8548  13.8786  13.8906  13.8995  13.9107  13.9162  13.9334  13.9509
    13.9614  13.9707  13.9745  13.9923  14.0019  14.0090  14.0183  14.0261
    14.0354  14.0420  14.0454  14.0558  14.0583  14.0653  14.0774  14.0797
    14.0949  14.1017  14.1036  14.1129  14.1374  14.1412  14.1475  14.1812
    14.2854  14.2983  14.3082  14.3240  14.3383  14.3437  14.3556  14.3629
    14.3647  14.3752  14.3879  14.3979  14.4100  14.4187  14.4326  14.4449
    14.4585  14.4697  14.4973  14.5229  14.5532  14.5564  14.5799  14.6240
    14.6725  14.6816  14.6924  14.7049  14.7388  14.7489  14.7615  14.7767
    14.7839  14.7978  14.8123  14.8214  14.8315  14.8541  14.8616  14.8677
    14.8727  14.8819  14.8945  14.9056  14.9082  14.9180  14.9306  14.9368
    14.9441  14.9463  14.9535  14.9609  14.9699  14.9850  14.9949  15.0000
    15.0087  15.0101  15.0308  15.0350  15.0384  15.0451  15.0527  15.0599
    15.0628  15.0670  15.0744  15.0846  15.0895  15.0959  15.1126  15.1245
    15.1383  15.1557  15.1676  15.1878  15.1957  15.2169  15.2264  15.2355
    15.2442  15.2589  15.2694  15.2725  15.2809  15.2835  15.2936  15.3071
    15.3128  15.3194  15.3235  15.3275  15.3417  15.3528  15.3654  15.3715
    15.3805  15.3858  15.3931  15.3974  15.4003  15.4067  15.4115  15.4168
    15.4208  15.4301  15.4328  15.4399  15.4493  15.4560  15.4706  15.4783
    15.4878  15.5191  15.5349  15.5523  15.5620  15.5700  15.5929  15.6105
    15.6375  15.6498  15.6575  15.6619  15.6665  15.6737  15.6796  15.6849
    15.6894  15.6938  15.7004  15.7010  15.7108  15.7165  15.7320  15.7345
    15.7380  15.7502  15.7516  15.7635  15.7713  15.7778  15.7820  15.7904
    15.8139  15.8178  15.8208  15.8354  15.8421  15.8448  15.8501  15.8732
    15.8954  15.9263  15.9430  15.9797  15.9963  16.0325  16.0463  16.0547
    16.0824  16.0943  16.1079  16.1398  16.1443  16.1620  16.1634  16.1722
    16.1899  16.1911  16.2007  16.2079  16.2151  16.2219  16.2238  16.2319
    16.2384  16.2439  16.2504  16.2637  16.2695  16.2732  16.2771  16.2881
    16.2900  16.2960  16.3177  16.3209  16.3304  16.3332  16.3499  16.3692
    16.5190  16.5232  16.5512  16.5644  16.5772  16.5842  16.6021  16.6209
    16.6256  16.6335  16.6554  16.6798  16.7087  16.7327  16.7518  16.7779
    16.7868  16.8074  16.8252  16.8349  16.8509  16.8565  16.8577  16.8670
    16.8818  16.8839  16.8892  16.9021  16.9083  16.9151  16.9274  16.9303
    16.9463  16.9482  16.9571  16.9601  16.9690  16.9800  16.9892  16.9986

     highest occupied, lowest unoccupied level (ev):     6.9347    7.1093

!    total energy              =  -34815.20423197 Ry
     estimated scf accuracy    <       0.00000552 Ry

     The total energy is the sum of the following terms:
     one-electron contribution =  -16875.82564738 Ry
     hartree contribution      =   10167.89136133 Ry
     xc contribution           =   -9298.75306000 Ry
     ewald contribution        =  -18810.75657890 Ry
     Hubbard energy            =       2.23969298 Ry

     convergence has been achieved in  12 iterations

     Writing all to output data dir ./tmp_In1.0Ga0.0As0.25Sb0.75_cube_3x3x3.0/In1.0Ga0.0As0.25Sb0.75_cube_3x3x3.0.save/ :
     XML data file, charge density, pseudopotentials, collected wavefunctions

     init_run     :    347.21s CPU    350.51s WALL (       1 calls)
     electrons    :  13865.93s CPU  13903.53s WALL (       1 calls)

     Called by init_run:
     wfcinit      :    337.54s CPU    340.59s WALL (       1 calls)
     potinit      :      0.26s CPU      0.33s WALL (       1 calls)
     hinit0       :      0.95s CPU      0.99s WALL (       1 calls)

     Called by electrons:
     c_bands      :  13507.16s CPU  13542.94s WALL (      13 calls)
     sum_band     :    354.23s CPU    354.92s WALL (      13 calls)
     v_of_rho     :      2.82s CPU      2.99s WALL (      13 calls)
     mix_rho      :      0.85s CPU      0.87s WALL (      13 calls)

     Called by c_bands:
     init_us_2    :     46.78s CPU     47.20s WALL (      56 calls)
     cegterg      :  13031.57s CPU  13064.49s WALL (      26 calls)

     Called by *egterg:
     cdiaghg      :   1604.48s CPU   1605.56s WALL (     243 calls)
     h_psi        :   7339.42s CPU   7358.59s WALL (     247 calls)
     g_psi        :      7.61s CPU      7.62s WALL (     219 calls)

     Called by h_psi:
     h_psi:calbec :   1279.78s CPU   1279.90s WALL (     247 calls)
     vloc_psi     :    953.34s CPU    955.93s WALL (     247 calls)
     add_vuspsi   :   1244.09s CPU   1250.79s WALL (     247 calls)
     vhpsi        :   3847.55s CPU   3847.83s WALL (     247 calls)

     General routines
     calbec       :   1613.54s CPU   1613.70s WALL (     522 calls)
     fft          :      2.37s CPU      2.53s WALL (     131 calls)
     ffts         :      0.21s CPU      0.21s WALL (      13 calls)
     fftw         :    981.12s CPU    983.88s WALL (  329446 calls)

     Parallel routines

     Hubbard U routines
     new_ns       :     99.87s CPU     99.88s WALL (      13 calls)
     vhpsi        :   3847.55s CPU   3847.83s WALL (     247 calls)

     PWSCF        :      3h58m CPU      4h 2m WALL


   This run was terminated on:   0:14:22  28Jan2026            

=------------------------------------------------------------------------------=
   JOB DONE.
=------------------------------------------------------------------------------=
