
     Program PWSCF v.7.3.1 starts on 16May2025 at  3: 5:12 

     This program is part of the open-source Quantum ESPRESSO suite
     for quantum simulation of materials; please cite
         "P. Giannozzi et al., J. Phys.:Condens. Matter 21 395502 (2009);
         "P. Giannozzi et al., J. Phys.:Condens. Matter 29 465901 (2017);
         "P. Giannozzi et al., J. Chem. Phys. 152 154105 (2020);
          URL http://www.quantum-espresso.org", 
     in publications or presentations arising from this work. More details at
     http://www.quantum-espresso.org/quote

     Parallel version (MPI), running on   512 processors

     MPI processes distributed on     4 nodes
     430955 MiB available memory on the printing compute node when the environment starts

     Reading input from In0.0Ga1.0As0.5Sb0.5_cube_3x3x3.4.scf.in
Warning: card &CELL ignored
Warning: card   CELL_DOFREE = 'ALL', ignored
Warning: card / ignored

     Current dimensions of program PWSCF are:
     Max number of different atomic species (ntypx) = 10
     Max number of k-points (npk) =  40000
     Max angular momentum in pseudopotentials (lmaxx) =  4

     K-points division:     npool     =       8
     R & G space division:  proc/nbgrp/npool/nimage =      64
     Subspace diagonalization in iterative solution of the eigenvalue problem:
     one sub-group per band group will be used
     custom distributed-memory algorithm (size of sub-group:  8*  8 procs)


     Parallelization info
     --------------------
     sticks:   dense  smooth     PW     G-vecs:    dense   smooth      PW
     Min         667     667    172               103771   103771   13562
     Max         668     668    173               103778   103778   13568
     Sum       42697   42697  11009              6641409  6641409  868215

     Using Slab Decomposition



     bravais-lattice index     =            1
     lattice parameter (alat)  =      33.4418  a.u.
     unit-cell volume          =   37399.8661 (a.u.)^3
     number of atoms/cell      =          216
     number of atomic types    =            4
     number of electrons       =      3024.00
     number of Kohn-Sham states=         2160
     kinetic-energy cutoff     =     120.0000  Ry
     charge density cutoff     =     480.0000  Ry
     scf convergence threshold =      1.0E-05
     mixing beta               =       0.6500
     number of iterations used =            8  plain     mixing
     Exchange-correlation= PBE
                           (   1   4   3   4   0   0   0)
     Hubbard projectors: atomic
     Hubbard parameters of DFT+U (Dudarev formulation) in eV:
     U(As-4p) =  5.8400
     U(Ga-4p) = -2.8000
     U(In-5p) = -1.0150
     U(Sb-5p) =  4.8900

     Internal variables: lda_plus_u =T, lda_plus_u_kind = 0

     celldm(1)=  33.441829  celldm(2)=   0.000000  celldm(3)=   0.000000
     celldm(4)=   0.000000  celldm(5)=   0.000000  celldm(6)=   0.000000

     crystal axes: (cart. coord. in units of alat)
               a(1) = (   1.000000   0.000000   0.000000 )  
               a(2) = (   0.000000   1.000000   0.000000 )  
               a(3) = (   0.000000   0.000000   1.000000 )  

     reciprocal axes: (cart. coord. in units 2 pi/alat)
               b(1) = (  1.000000  0.000000  0.000000 )  
               b(2) = (  0.000000  1.000000  0.000000 )  
               b(3) = (  0.000000  0.000000  1.000000 )  


     PseudoPot. # 1 for As read from file:
     /work/i254/i254/gentles/data/pseudos/As.pbe.NC-SR.standard.v0.5.UPF
     MD5 check sum: bfe1a874457ce592347346129958e7cf
     Pseudo is Norm-conserving + core correction, Zval = 15.0
     Generated using ONCVPSP code by D. R. Hamann
     Using radial grid of 1358 points,  6 beta functions with: 
                l(1) =   0
                l(2) =   0
                l(3) =   1
                l(4) =   1
                l(5) =   2
                l(6) =   2

     PseudoPot. # 2 for Ga read from file:
     /work/i254/i254/gentles/data/pseudos/Ga.pbe.NC-SR.standard.v0.5.UPF
     MD5 check sum: 2bb81bf6f0a8d9832cf3329850435ecf
     Pseudo is Norm-conserving + core correction, Zval = 13.0
     Generated using ONCVPSP code by D. R. Hamann
     Using radial grid of 1902 points,  6 beta functions with: 
                l(1) =   0
                l(2) =   0
                l(3) =   1
                l(4) =   1
                l(5) =   2
                l(6) =   2

     PseudoPot. # 3 for In read from file:
     /work/i254/i254/gentles/data/pseudos/In.pbe.NC-SR.standard.v0.5.UPF
     MD5 check sum: 835f4bf908c982ff75c88e16816a8d7f
     Pseudo is Norm-conserving + core correction, Zval = 13.0
     Generated using ONCVPSP code by D. R. Hamann
     Using radial grid of 1964 points,  6 beta functions with: 
                l(1) =   0
                l(2) =   0
                l(3) =   1
                l(4) =   1
                l(5) =   2
                l(6) =   2

     PseudoPot. # 4 for Sb read from file:
     /work/i254/i254/gentles/data/pseudos/Sb.pbe.NC-SR.standard.v0.5.UPF
     MD5 check sum: 127f69b6101c45666faeae1b5d611565
     Pseudo is Norm-conserving + core correction, Zval = 15.0
     Generated using ONCVPSP code by D. R. Hamann
     Using radial grid of 1434 points,  6 beta functions with: 
                l(1) =   0
                l(2) =   0
                l(3) =   1
                l(4) =   1
                l(5) =   2
                l(6) =   2

     atomic species   valence    mass     pseudopotential
     As               15.00    74.92160     As( 1.00)
     Ga               13.00    69.72300     Ga( 1.00)
     In               13.00   114.81800     In( 1.00)
     Sb               15.00   121.76000     Sb( 1.00)

     No symmetry found



   Cartesian axes

     site n.     atom                  positions (alat units)
         1        Ga     tau(   1) = (  -0.0012160   0.0001660   0.0082910  )
         2        Ga     tau(   2) = (  -0.0016460   0.1678130   0.1597100  )
         3        Ga     tau(   3) = (   0.1674400   0.0074560   0.1696860  )
         4        Ga     tau(   4) = (   0.1604130   0.1618630   0.0019400  )
         5        As     tau(   5) = (   0.0817160   0.0831500   0.0859790  )
         6        Sb     tau(   6) = (   0.0808630   0.2499890   0.2531440  )
         7        As     tau(   7) = (   0.2545170   0.0807580   0.2511380  )
         8        Sb     tau(   8) = (   0.2510440   0.2467130   0.0841870  )
         9        Ga     tau(   9) = (  -0.0039660   0.0008790   0.3360860  )
        10        Ga     tau(  10) = (  -0.0003860   0.1787450   0.5005230  )
        11        Ga     tau(  11) = (   0.1630780  -0.0057940   0.5063230  )
        12        Ga     tau(  12) = (   0.1738630   0.1613380   0.3312870  )
        13        Sb     tau(  13) = (   0.0831810   0.0844710   0.4203940  )
        14        As     tau(  14) = (   0.0820660   0.2581410   0.5829680  )
        15        Sb     tau(  15) = (   0.2513600   0.0853360   0.5834380  )
        16        Sb     tau(  16) = (   0.2513390   0.2499890   0.4214700  )
        17        Ga     tau(  17) = (   0.0043130  -0.0035250   0.6589270  )
        18        Ga     tau(  18) = (  -0.0021300   0.1632080   0.8305730  )
        19        Ga     tau(  19) = (   0.1734550  -0.0059480   0.8270850  )
        20        Ga     tau(  20) = (   0.1671560   0.1794510   0.6619590  )
        21        Sb     tau(  21) = (   0.0882610   0.0838350   0.7440080  )
        22        Sb     tau(  22) = (   0.0813030   0.2510470   0.9142100  )
        23        Sb     tau(  23) = (   0.2523390   0.0840050   0.9146880  )
        24        As     tau(  24) = (   0.2503750   0.2557460   0.7431650  )
        25        Ga     tau(  25) = (  -0.0101790   0.3341170  -0.0022700  )
        26        Ga     tau(  26) = (  -0.0048970   0.4932060   0.1761960  )
        27        Ga     tau(  27) = (   0.1672000   0.3352050   0.1678330  )
        28        Ga     tau(  28) = (   0.1634520   0.5054630  -0.0077010  )
        29        Sb     tau(  29) = (   0.0801660   0.4181900   0.0808610  )
        30        Sb     tau(  30) = (   0.0834110   0.5822270   0.2573480  )
        31        Sb     tau(  31) = (   0.2527280   0.4212700   0.2535460  )
        32        Sb     tau(  32) = (   0.2545040   0.5827390   0.0814520  )
        33        Ga     tau(  33) = (  -0.0051410   0.3372070   0.3410650  )
        34        Ga     tau(  34) = (  -0.0033410   0.4925050   0.5015150  )
        35        Ga     tau(  35) = (   0.1637540   0.3381620   0.5044090  )
        36        Ga     tau(  36) = (   0.1672340   0.5006500   0.3474400  )
        37        As     tau(  37) = (   0.0816090   0.4158620   0.4214610  )
        38        Sb     tau(  38) = (   0.0845510   0.5825460   0.5820560  )
        39        As     tau(  39) = (   0.2505360   0.4159580   0.5845320  )
        40        As     tau(  40) = (   0.2516990   0.5841350   0.4221490  )
        41        Ga     tau(  41) = (   0.0016010   0.3388060   0.6632590  )
        42        Ga     tau(  42) = (   0.0045440   0.4944370   0.8330670  )
        43        Ga     tau(  43) = (   0.1679010   0.3339750   0.8231900  )
        44        Ga     tau(  44) = (   0.1684520   0.4923260   0.6671580  )
        45        As     tau(  45) = (   0.0838650   0.4154210   0.7478020  )
        46        As     tau(  46) = (   0.0812610   0.5819540   0.9107180  )
        47        Sb     tau(  47) = (   0.2525380   0.4189230   0.9118360  )
        48        Sb     tau(  48) = (   0.2539230   0.5836990   0.7470230  )
        49        Ga     tau(  49) = (   0.0032300   0.6601880  -0.0044170  )
        50        Ga     tau(  50) = (  -0.0079970   0.8359350   0.1609840  )
        51        Ga     tau(  51) = (   0.1696580   0.6651910   0.1693080  )
        52        Ga     tau(  52) = (   0.1715960   0.8332940  -0.0007420  )
        53        Sb     tau(  53) = (   0.0836690   0.7486140   0.0825730  )
        54        Sb     tau(  54) = (   0.0808420   0.9168120   0.2492300  )
        55        Sb     tau(  55) = (   0.2559430   0.7486220   0.2549920  )
        56        Sb     tau(  56) = (   0.2541110   0.9201860   0.0858580  )
        57        Ga     tau(  57) = (   0.0044010   0.6738130   0.3421140  )
        58        Ga     tau(  58) = (   0.0028480   0.8274560   0.5050380  )
        59        Ga     tau(  59) = (   0.1730500   0.6697060   0.4988320  )
        60        Ga     tau(  60) = (   0.1630170   0.8298440   0.3377400  )
        61        As     tau(  61) = (   0.0865930   0.7507970   0.4229530  )
        62        As     tau(  62) = (   0.0844460   0.9094020   0.5846400  )
        63        As     tau(  63) = (   0.2533030   0.7492450   0.5825990  )
        64        Sb     tau(  64) = (   0.2524260   0.9151740   0.4182970  )
        65        Ga     tau(  65) = (  -0.0013930   0.6732100   0.6639340  )
        66        Ga     tau(  66) = (   0.0035380   0.8291380   0.8260420  )
        67        Ga     tau(  67) = (   0.1589750   0.6645520   0.8289540  )
        68        Ga     tau(  68) = (   0.1688980   0.8296330   0.6641500  )
        69        As     tau(  69) = (   0.0844820   0.7495900   0.7447670  )
        70        Sb     tau(  70) = (   0.0831150   0.9168720   0.9158680  )
        71        Sb     tau(  71) = (   0.2529720   0.7461330   0.9117710  )
        72        As     tau(  72) = (   0.2494150   0.9106990   0.7453400  )
        73        Ga     tau(  73) = (   0.3423870   0.0037640   0.0020950  )
        74        Ga     tau(  74) = (   0.3347020   0.1581610   0.1679090  )
        75        Ga     tau(  75) = (   0.4998730   0.0024370   0.1722600  )
        76        Ga     tau(  76) = (   0.4962400   0.1606800   0.0043870  )
        77        As     tau(  77) = (   0.4189980   0.0808140   0.0882770  )
        78        Sb     tau(  78) = (   0.4194920   0.2473920   0.2502300  )
        79        As     tau(  79) = (   0.5844470   0.0819900   0.2529780  )
        80        Sb     tau(  80) = (   0.5828680   0.2495590   0.0849480  )
        81        Ga     tau(  81) = (   0.3385150   0.0005560   0.3320420  )
        82        Ga     tau(  82) = (   0.3453110   0.1668000   0.5004330  )
        83        Ga     tau(  83) = (   0.5018050   0.0076010   0.5012050  )
        84        Ga     tau(  84) = (   0.5028740   0.1582650   0.3356610  )
        85        As     tau(  85) = (   0.4192580   0.0823090   0.4161890  )
        86        As     tau(  86) = (   0.4203450   0.2522010   0.5847110  )
        87        As     tau(  87) = (   0.5856810   0.0841280   0.5845820  )
        88        Sb     tau(  88) = (   0.5843750   0.2471480   0.4210840  )
        89        Ga     tau(  89) = (   0.3295890  -0.0057290   0.6692280  )
        90        Ga     tau(  90) = (   0.3288880   0.1753450   0.8263380  )
        91        Ga     tau(  91) = (   0.5048440  -0.0057630   0.8259130  )
        92        Ga     tau(  92) = (   0.5055310   0.1716630   0.6614020  )
        93        Sb     tau(  93) = (   0.4178400   0.0852260   0.7468410  )
        94        Sb     tau(  94) = (   0.4190870   0.2534310   0.9147720  )
        95        Sb     tau(  95) = (   0.5842190   0.0827320   0.9128630  )
        96        As     tau(  96) = (   0.5854120   0.2534880   0.7432060  )
        97        Ga     tau(  97) = (   0.3367320   0.3388900   0.0042340  )
        98        Ga     tau(  98) = (   0.3444560   0.5027630   0.1686780  )
        99        Ga     tau(  99) = (   0.4962170   0.3400560   0.1622060  )
       100        Ga     tau( 100) = (   0.4987650   0.4975990  -0.0066410  )
       101        As     tau( 101) = (   0.4182640   0.4213770   0.0813100  )
       102        As     tau( 102) = (   0.4202650   0.5858270   0.2536710  )
       103        Sb     tau( 103) = (   0.5838630   0.4199340   0.2516350  )
       104        Sb     tau( 104) = (   0.5802220   0.5852960   0.0830970  )
       105        Ga     tau( 105) = (   0.3366470   0.3338120   0.3365970  )
       106        Ga     tau( 106) = (   0.3282190   0.5056820   0.5077990  )
       107        Ga     tau( 107) = (   0.5025210   0.3360540   0.5087640  )
       108        Ga     tau( 108) = (   0.5028350   0.5102780   0.3374640  )
       109        Sb     tau( 109) = (   0.4178990   0.4228460   0.4228350  )
       110        As     tau( 110) = (   0.4171210   0.5851830   0.5814910  )
       111        As     tau( 111) = (   0.5841210   0.4190160   0.5854500  )
       112        As     tau( 112) = (   0.5836080   0.5874130   0.4206270  )
       113        Ga     tau( 113) = (   0.3349310   0.3344520   0.6643730  )
       114        Ga     tau( 114) = (   0.3453840   0.5020920   0.8306570  )
       115        Ga     tau( 115) = (   0.5049660   0.3362100   0.8243550  )
       116        Ga     tau( 116) = (   0.4943830   0.4969940   0.6606350  )
       117        As     tau( 117) = (   0.4184230   0.4157610   0.7451460  )
       118        As     tau( 118) = (   0.4220970   0.5844110   0.9152500  )
       119        As     tau( 119) = (   0.5803330   0.4167410   0.9107960  )
       120        Sb     tau( 120) = (   0.5791140   0.5821650   0.7468380  )
       121        Ga     tau( 121) = (   0.3440710   0.6658760  -0.0006750  )
       122        Ga     tau( 122) = (   0.3433600   0.8350470   0.1686950  )
       123        Ga     tau( 123) = (   0.4975480   0.6708310   0.1734590  )
       124        Ga     tau( 124) = (   0.5003010   0.8240960   0.0014420  )
       125        As     tau( 125) = (   0.4195700   0.7486630   0.0863180  )
       126        As     tau( 126) = (   0.4207430   0.9171030   0.2525030  )
       127        As     tau( 127) = (   0.5814620   0.7483080   0.2565810  )
       128        Sb     tau( 128) = (   0.5827270   0.9151430   0.0857050  )
       129        Ga     tau( 129) = (   0.3384660   0.6592280   0.3402000  )
       130        Ga     tau( 130) = (   0.3370430   0.8236990   0.4993370  )
       131        Ga     tau( 131) = (   0.5006030   0.6671500   0.5003220  )
       132        Ga     tau( 132) = (   0.4964550   0.8292300   0.3338310  )
       133        As     tau( 133) = (   0.4185450   0.7447010   0.4174880  )
       134        Sb     tau( 134) = (   0.4206960   0.9133130   0.5841930  )
       135        As     tau( 135) = (   0.5830810   0.7471500   0.5818910  )
       136        Sb     tau( 136) = (   0.5841850   0.9171100   0.4168690  )
       137        Ga     tau( 137) = (   0.3398700   0.6706330   0.6611340  )
       138        Ga     tau( 138) = (   0.3339260   0.8304840   0.8206540  )
       139        Ga     tau( 139) = (   0.4973100   0.6706250   0.8342630  )
       140        Ga     tau( 140) = (   0.5079260   0.8272130   0.6694260  )
       141        As     tau( 141) = (   0.4200250   0.7493580   0.7464110  )
       142        Sb     tau( 142) = (   0.4183050   0.9117600   0.9132780  )
       143        As     tau( 143) = (   0.5803590   0.7519660   0.9131110  )
       144        As     tau( 144) = (   0.5862340   0.9140520   0.7471840  )
       145        Ga     tau( 145) = (   0.6703900  -0.0036360  -0.0041130  )
       146        Ga     tau( 146) = (   0.6662860   0.1665510   0.1777030  )
       147        Ga     tau( 147) = (   0.8305320  -0.0099710   0.1701190  )
       148        Ga     tau( 148) = (   0.8335260   0.1738020   0.0056820  )
       149        Sb     tau( 149) = (   0.7491070   0.0822570   0.0873560  )
       150        As     tau( 150) = (   0.7517290   0.2476710   0.2547150  )
       151        Sb     tau( 151) = (   0.9117250   0.0854460   0.2502860  )
       152        As     tau( 152) = (   0.9158330   0.2523500   0.0846570  )
       153        Ga     tau( 153) = (   0.6702690   0.0042820   0.3311360  )
       154        Ga     tau( 154) = (   0.6708540   0.1624000   0.5054020  )
       155        Ga     tau( 155) = (   0.8227770   0.0002130   0.4990690  )
       156        Ga     tau( 156) = (   0.8298010   0.1709320   0.3416390  )
       157        As     tau( 157) = (   0.7481650   0.0849050   0.4174200  )
       158        As     tau( 158) = (   0.7481860   0.2492630   0.5845710  )
       159        Sb     tau( 159) = (   0.9137950   0.0857720   0.5805350  )
       160        As     tau( 160) = (   0.9142950   0.2539160   0.4203350  )
       161        Ga     tau( 161) = (   0.6642330  -0.0027340   0.6648210  )
       162        Ga     tau( 162) = (   0.6650740   0.1689450   0.8218630  )
       163        Ga     tau( 163) = (   0.8216570   0.0005870   0.8311210  )
       164        Ga     tau( 164) = (   0.8232850   0.1659190   0.6673910  )
       165        As     tau( 165) = (   0.7434210   0.0813290   0.7460290  )
       166        Sb     tau( 166) = (   0.7494140   0.2541900   0.9113980  )
       167        Sb     tau( 167) = (   0.9116750   0.0822120   0.9191820  )
       168        Sb     tau( 168) = (   0.9144460   0.2520970   0.7467130  )
       169        Ga     tau( 169) = (   0.6593470   0.3372290  -0.0063670  )
       170        Ga     tau( 170) = (   0.6716200   0.5064140   0.1698970  )
       171        Ga     tau( 171) = (   0.8359050   0.3265840   0.1733520  )
       172        Ga     tau( 172) = (   0.8377070   0.4947610  -0.0048830  )
       173        Sb     tau( 173) = (   0.7514450   0.4134970   0.0844400  )
       174        As     tau( 174) = (   0.7467460   0.5862530   0.2543430  )
       175        As     tau( 175) = (   0.9129530   0.4129250   0.2546650  )
       176        Sb     tau( 176) = (   0.9164720   0.5796660   0.0858180  )
       177        Ga     tau( 177) = (   0.6699160   0.3289240   0.3317480  )
       178        Ga     tau( 178) = (   0.6612260   0.5040180   0.5030240  )
       179        Ga     tau( 179) = (   0.8352470   0.3291990   0.5069840  )
       180        Ga     tau( 180) = (   0.8305230   0.5007990   0.3273480  )
       181        Sb     tau( 181) = (   0.7497190   0.4168680   0.4201820  )
       182        As     tau( 182) = (   0.7474930   0.5827620   0.5809730  )
       183        As     tau( 183) = (   0.9143680   0.4148090   0.5842080  )
       184        Sb     tau( 184) = (   0.9146980   0.5834640   0.4175590  )
       185        Ga     tau( 185) = (   0.6673790   0.3346450   0.6636490  )
       186        Ga     tau( 186) = (   0.6643850   0.4923530   0.8284210  )
       187        Ga     tau( 187) = (   0.8333610   0.3444020   0.8284880  )
       188        Ga     tau( 188) = (   0.8274830   0.4970100   0.6597700  )
       189        As     tau( 189) = (   0.7480940   0.4170330   0.7442480  )
       190        Sb     tau( 190) = (   0.7463340   0.5801840   0.9149670  )
       191        As     tau( 191) = (   0.9174680   0.4176850   0.9120390  )
       192        Sb     tau( 192) = (   0.9172380   0.5796510   0.7461480  )
       193        Ga     tau( 193) = (   0.6602310   0.6725240  -0.0060260  )
       194        Ga     tau( 194) = (   0.6629470   0.8330000   0.1797080  )
       195        Ga     tau( 195) = (   0.8271700   0.6627690   0.1704640  )
       196        Ga     tau( 196) = (   0.8329640   0.8420550  -0.0017480  )
       197        Sb     tau( 197) = (   0.7468510   0.7542350   0.0845050  )
       198        As     tau( 198) = (   0.7470850   0.9154530   0.2549390  )
       199        Sb     tau( 199) = (   0.9124900   0.7510900   0.2533740  )
       200        As     tau( 200) = (   0.9133570   0.9185520   0.0830690  )
       201        Ga     tau( 201) = (   0.6645950   0.6671200   0.3389640  )
       202        Ga     tau( 202) = (   0.6662910   0.8292100   0.5041450  )
       203        Ga     tau( 203) = (   0.8279830   0.6681630   0.5030870  )
       204        Ga     tau( 204) = (   0.8213090   0.8313650   0.3383220  )
       205        As     tau( 205) = (   0.7452170   0.7481200   0.4212910  )
       206        As     tau( 206) = (   0.7450560   0.9169860   0.5810860  )
       207        As     tau( 207) = (   0.9142460   0.7496910   0.5813290  )
       208        Sb     tau( 208) = (   0.9129240   0.9127650   0.4211740  )
       209        Ga     tau( 209) = (   0.6646270   0.6639960   0.6577360  )
       210        Ga     tau( 210) = (   0.6622390   0.8365570   0.8351280  )
       211        Ga     tau( 211) = (   0.8303720   0.6653000   0.8293810  )
       212        Ga     tau( 212) = (   0.8317980   0.8359310   0.6554250  )
       213        Sb     tau( 213) = (   0.7462380   0.7522970   0.7444780  )
       214        As     tau( 214) = (   0.7477480   0.9157480   0.9140350  )
       215        Sb     tau( 215) = (   0.9162240   0.7494910   0.9153220  )
       216        Sb     tau( 216) = (   0.9144120   0.9180370   0.7463770  )

     number of k points=     8
                       cart. coord. in units 2pi/alat
        k(    1) = (   0.0000000   0.0000000   0.0000000), wk =   0.2500000
        k(    2) = (   0.0000000   0.0000000  -0.5000000), wk =   0.2500000
        k(    3) = (   0.0000000  -0.5000000  -0.5000000), wk =   0.2500000
        k(    4) = (  -0.5000000  -0.5000000  -0.5000000), wk =   0.2500000
        k(    5) = (  -0.5000000   0.0000000   0.0000000), wk =   0.2500000
        k(    6) = (   0.0000000  -0.5000000   0.0000000), wk =   0.2500000
        k(    7) = (  -0.5000000   0.0000000   0.5000000), wk =   0.2500000
        k(    8) = (  -0.5000000   0.5000000   0.0000000), wk =   0.2500000

     Dense  grid:  6641409 G-vectors     FFT dimensions: ( 240, 240, 240)

     Estimated max dynamical RAM per process >       3.18 GB

     Estimated total dynamical RAM >    1615.19 GB

     Initial potential from superposition of free atoms

     starting charge    3023.6679, renormalised to    3024.0000

     STARTING HUBBARD OCCUPATIONS:

     =================== HUBBARD OCCUPATIONS ===================
     ------------------------ ATOM    1 ------------------------
     Tr[ns(  1)] =   1.00000
     eigenvalues:
       0.167  0.167  0.167
     eigenvectors (columns):
       1.000  0.000  0.000
       0.000  1.000  0.000
       0.000  0.000  1.000
     occupation matrix ns (before diag.):
       0.167  0.000  0.000
       0.000  0.167  0.000
       0.000  0.000  0.167
     ------------------------ ATOM    2 ------------------------
     Tr[ns(  2)] =   1.00000
     eigenvalues:
       0.167  0.167  0.167
     eigenvectors (columns):
       1.000  0.000  0.000
       0.000  1.000  0.000
       0.000  0.000  1.000
     occupation matrix ns (before diag.):
       0.167  0.000  0.000
       0.000  0.167  0.000
       0.000  0.000  0.167
     ------------------------ ATOM    3 ------------------------
     Tr[ns(  3)] =   1.00000
     eigenvalues:
       0.167  0.167  0.167
     eigenvectors (columns):
       1.000  0.000  0.000
       0.000  1.000  0.000
       0.000  0.000  1.000
     occupation matrix ns (before diag.):
       0.167  0.000  0.000
       0.000  0.167  0.000
       0.000  0.000  0.167
     ------------------------ ATOM    4 ------------------------
     Tr[ns(  4)] =   1.00000
     eigenvalues:
       0.167  0.167  0.167
     eigenvectors (columns):
       1.000  0.000  0.000
       0.000  1.000  0.000
       0.000  0.000  1.000
     occupation matrix ns (before diag.):
       0.167  0.000  0.000
       0.000  0.167  0.000
       0.000  0.000  0.167
     ------------------------ ATOM    5 ------------------------
     Tr[ns(  5)] =   3.00000
     eigenvalues:
       0.500  0.500  0.500
     eigenvectors (columns):
       1.000  0.000  0.000
       0.000  1.000  0.000
       0.000  0.000  1.000
     occupation matrix ns (before diag.):
       0.500  0.000  0.000
       0.000  0.500  0.000
       0.000  0.000  0.500
     ------------------------ ATOM    6 ------------------------
     Tr[ns(  6)] =   3.00000
     eigenvalues:
       0.500  0.500  0.500
     eigenvectors (columns):
       1.000  0.000  0.000
       0.000  1.000  0.000
       0.000  0.000  1.000
     occupation matrix ns (before diag.):
       0.500  0.000  0.000
       0.000  0.500  0.000
       0.000  0.000  0.500
     ------------------------ ATOM    7 ------------------------
     Tr[ns(  7)] =   3.00000
     eigenvalues:
       0.500  0.500  0.500
     eigenvectors (columns):
       1.000  0.000  0.000
       0.000  1.000  0.000
       0.000  0.000  1.000
     occupation matrix ns (before diag.):
       0.500  0.000  0.000
       0.000  0.500  0.000
       0.000  0.000  0.500
     ------------------------ ATOM    8 ------------------------
     Tr[ns(  8)] =   3.00000
     eigenvalues:
       0.500  0.500  0.500
     eigenvectors (columns):
       1.000  0.000  0.000
       0.000  1.000  0.000
       0.000  0.000  1.000
     occupation matrix ns (before diag.):
       0.500  0.000  0.000
       0.000  0.500  0.000
       0.000  0.000  0.500
     ------------------------ ATOM    9 ------------------------
     Tr[ns(  9)] =   1.00000
     eigenvalues:
       0.167  0.167  0.167
     eigenvectors (columns):
       1.000  0.000  0.000
       0.000  1.000  0.000
       0.000  0.000  1.000
     occupation matrix ns (before diag.):
       0.167  0.000  0.000
       0.000  0.167  0.000
       0.000  0.000  0.167
     ------------------------ ATOM   10 ------------------------
     Tr[ns( 10)] =   1.00000
     eigenvalues:
       0.167  0.167  0.167
     eigenvectors (columns):
       1.000  0.000  0.000
       0.000  1.000  0.000
       0.000  0.000  1.000
     occupation matrix ns (before diag.):
       0.167  0.000  0.000
       0.000  0.167  0.000
       0.000  0.000  0.167
     ------------------------ ATOM   11 ------------------------
     Tr[ns( 11)] =   1.00000
     eigenvalues:
       0.167  0.167  0.167
     eigenvectors (columns):
       1.000  0.000  0.000
       0.000  1.000  0.000
       0.000  0.000  1.000
     occupation matrix ns (before diag.):
       0.167  0.000  0.000
       0.000  0.167  0.000
       0.000  0.000  0.167
     ------------------------ ATOM   12 ------------------------
     Tr[ns( 12)] =   1.00000
     eigenvalues:
       0.167  0.167  0.167
     eigenvectors (columns):
       1.000  0.000  0.000
       0.000  1.000  0.000
       0.000  0.000  1.000
     occupation matrix ns (before diag.):
       0.167  0.000  0.000
       0.000  0.167  0.000
       0.000  0.000  0.167
     ------------------------ ATOM   13 ------------------------
     Tr[ns( 13)] =   3.00000
     eigenvalues:
       0.500  0.500  0.500
     eigenvectors (columns):
       1.000  0.000  0.000
       0.000  1.000  0.000
       0.000  0.000  1.000
     occupation matrix ns (before diag.):
       0.500  0.000  0.000
       0.000  0.500  0.000
       0.000  0.000  0.500
     ------------------------ ATOM   14 ------------------------
     Tr[ns( 14)] =   3.00000
     eigenvalues:
       0.500  0.500  0.500
     eigenvectors (columns):
       1.000  0.000  0.000
       0.000  1.000  0.000
       0.000  0.000  1.000
     occupation matrix ns (before diag.):
       0.500  0.000  0.000
       0.000  0.500  0.000
       0.000  0.000  0.500
     ------------------------ ATOM   15 ------------------------
     Tr[ns( 15)] =   3.00000
     eigenvalues:
       0.500  0.500  0.500
     eigenvectors (columns):
       1.000  0.000  0.000
       0.000  1.000  0.000
       0.000  0.000  1.000
     occupation matrix ns (before diag.):
       0.500  0.000  0.000
       0.000  0.500  0.000
       0.000  0.000  0.500
     ------------------------ ATOM   16 ------------------------
     Tr[ns( 16)] =   3.00000
     eigenvalues:
       0.500  0.500  0.500
     eigenvectors (columns):
       1.000  0.000  0.000
       0.000  1.000  0.000
       0.000  0.000  1.000
     occupation matrix ns (before diag.):
       0.500  0.000  0.000
       0.000  0.500  0.000
       0.000  0.000  0.500
     ------------------------ ATOM   17 ------------------------
     Tr[ns( 17)] =   1.00000
     eigenvalues:
       0.167  0.167  0.167
     eigenvectors (columns):
       1.000  0.000  0.000
       0.000  1.000  0.000
       0.000  0.000  1.000
     occupation matrix ns (before diag.):
       0.167  0.000  0.000
       0.000  0.167  0.000
       0.000  0.000  0.167
     ------------------------ ATOM   18 ------------------------
     Tr[ns( 18)] =   1.00000
     eigenvalues:
       0.167  0.167  0.167
     eigenvectors (columns):
       1.000  0.000  0.000
       0.000  1.000  0.000
       0.000  0.000  1.000
     occupation matrix ns (before diag.):
       0.167  0.000  0.000
       0.000  0.167  0.000
       0.000  0.000  0.167
     ------------------------ ATOM   19 ------------------------
     Tr[ns( 19)] =   1.00000
     eigenvalues:
       0.167  0.167  0.167
     eigenvectors (columns):
       1.000  0.000  0.000
       0.000  1.000  0.000
       0.000  0.000  1.000
     occupation matrix ns (before diag.):
       0.167  0.000  0.000
       0.000  0.167  0.000
       0.000  0.000  0.167
     ------------------------ ATOM   20 ------------------------
     Tr[ns( 20)] =   1.00000
     eigenvalues:
       0.167  0.167  0.167
     eigenvectors (columns):
       1.000  0.000  0.000
       0.000  1.000  0.000
       0.000  0.000  1.000
     occupation matrix ns (before diag.):
       0.167  0.000  0.000
       0.000  0.167  0.000
       0.000  0.000  0.167
     ------------------------ ATOM   21 ------------------------
     Tr[ns( 21)] =   3.00000
     eigenvalues:
       0.500  0.500  0.500
     eigenvectors (columns):
       1.000  0.000  0.000
       0.000  1.000  0.000
       0.000  0.000  1.000
     occupation matrix ns (before diag.):
       0.500  0.000  0.000
       0.000  0.500  0.000
       0.000  0.000  0.500
     ------------------------ ATOM   22 ------------------------
     Tr[ns( 22)] =   3.00000
     eigenvalues:
       0.500  0.500  0.500
     eigenvectors (columns):
       1.000  0.000  0.000
       0.000  1.000  0.000
       0.000  0.000  1.000
     occupation matrix ns (before diag.):
       0.500  0.000  0.000
       0.000  0.500  0.000
       0.000  0.000  0.500
     ------------------------ ATOM   23 ------------------------
     Tr[ns( 23)] =   3.00000
     eigenvalues:
       0.500  0.500  0.500
     eigenvectors (columns):
       1.000  0.000  0.000
       0.000  1.000  0.000
       0.000  0.000  1.000
     occupation matrix ns (before diag.):
       0.500  0.000  0.000
       0.000  0.500  0.000
       0.000  0.000  0.500
     ------------------------ ATOM   24 ------------------------
     Tr[ns( 24)] =   3.00000
     eigenvalues:
       0.500  0.500  0.500
     eigenvectors (columns):
       1.000  0.000  0.000
       0.000  1.000  0.000
       0.000  0.000  1.000
     occupation matrix ns (before diag.):
       0.500  0.000  0.000
       0.000  0.500  0.000
       0.000  0.000  0.500
     ------------------------ ATOM   25 ------------------------
     Tr[ns( 25)] =   1.00000
     eigenvalues:
       0.167  0.167  0.167
     eigenvectors (columns):
       1.000  0.000  0.000
       0.000  1.000  0.000
       0.000  0.000  1.000
     occupation matrix ns (before diag.):
       0.167  0.000  0.000
       0.000  0.167  0.000
       0.000  0.000  0.167
     ------------------------ ATOM   26 ------------------------
     Tr[ns( 26)] =   1.00000
     eigenvalues:
       0.167  0.167  0.167
     eigenvectors (columns):
       1.000  0.000  0.000
       0.000  1.000  0.000
       0.000  0.000  1.000
     occupation matrix ns (before diag.):
       0.167  0.000  0.000
       0.000  0.167  0.000
       0.000  0.000  0.167
     ------------------------ ATOM   27 ------------------------
     Tr[ns( 27)] =   1.00000
     eigenvalues:
       0.167  0.167  0.167
     eigenvectors (columns):
       1.000  0.000  0.000
       0.000  1.000  0.000
       0.000  0.000  1.000
     occupation matrix ns (before diag.):
       0.167  0.000  0.000
       0.000  0.167  0.000
       0.000  0.000  0.167
     ------------------------ ATOM   28 ------------------------
     Tr[ns( 28)] =   1.00000
     eigenvalues:
       0.167  0.167  0.167
     eigenvectors (columns):
       1.000  0.000  0.000
       0.000  1.000  0.000
       0.000  0.000  1.000
     occupation matrix ns (before diag.):
       0.167  0.000  0.000
       0.000  0.167  0.000
       0.000  0.000  0.167
     ------------------------ ATOM   29 ------------------------
     Tr[ns( 29)] =   3.00000
     eigenvalues:
       0.500  0.500  0.500
     eigenvectors (columns):
       1.000  0.000  0.000
       0.000  1.000  0.000
       0.000  0.000  1.000
     occupation matrix ns (before diag.):
       0.500  0.000  0.000
       0.000  0.500  0.000
       0.000  0.000  0.500
     ------------------------ ATOM   30 ------------------------
     Tr[ns( 30)] =   3.00000
     eigenvalues:
       0.500  0.500  0.500
     eigenvectors (columns):
       1.000  0.000  0.000
       0.000  1.000  0.000
       0.000  0.000  1.000
     occupation matrix ns (before diag.):
       0.500  0.000  0.000
       0.000  0.500  0.000
       0.000  0.000  0.500
     ------------------------ ATOM   31 ------------------------
     Tr[ns( 31)] =   3.00000
     eigenvalues:
       0.500  0.500  0.500
     eigenvectors (columns):
       1.000  0.000  0.000
       0.000  1.000  0.000
       0.000  0.000  1.000
     occupation matrix ns (before diag.):
       0.500  0.000  0.000
       0.000  0.500  0.000
       0.000  0.000  0.500
     ------------------------ ATOM   32 ------------------------
     Tr[ns( 32)] =   3.00000
     eigenvalues:
       0.500  0.500  0.500
     eigenvectors (columns):
       1.000  0.000  0.000
       0.000  1.000  0.000
       0.000  0.000  1.000
     occupation matrix ns (before diag.):
       0.500  0.000  0.000
       0.000  0.500  0.000
       0.000  0.000  0.500
     ------------------------ ATOM   33 ------------------------
     Tr[ns( 33)] =   1.00000
     eigenvalues:
       0.167  0.167  0.167
     eigenvectors (columns):
       1.000  0.000  0.000
       0.000  1.000  0.000
       0.000  0.000  1.000
     occupation matrix ns (before diag.):
       0.167  0.000  0.000
       0.000  0.167  0.000
       0.000  0.000  0.167
     ------------------------ ATOM   34 ------------------------
     Tr[ns( 34)] =   1.00000
     eigenvalues:
       0.167  0.167  0.167
     eigenvectors (columns):
       1.000  0.000  0.000
       0.000  1.000  0.000
       0.000  0.000  1.000
     occupation matrix ns (before diag.):
       0.167  0.000  0.000
       0.000  0.167  0.000
       0.000  0.000  0.167
     ------------------------ ATOM   35 ------------------------
     Tr[ns( 35)] =   1.00000
     eigenvalues:
       0.167  0.167  0.167
     eigenvectors (columns):
       1.000  0.000  0.000
       0.000  1.000  0.000
       0.000  0.000  1.000
     occupation matrix ns (before diag.):
       0.167  0.000  0.000
       0.000  0.167  0.000
       0.000  0.000  0.167
     ------------------------ ATOM   36 ------------------------
     Tr[ns( 36)] =   1.00000
     eigenvalues:
       0.167  0.167  0.167
     eigenvectors (columns):
       1.000  0.000  0.000
       0.000  1.000  0.000
       0.000  0.000  1.000
     occupation matrix ns (before diag.):
       0.167  0.000  0.000
       0.000  0.167  0.000
       0.000  0.000  0.167
     ------------------------ ATOM   37 ------------------------
     Tr[ns( 37)] =   3.00000
     eigenvalues:
       0.500  0.500  0.500
     eigenvectors (columns):
       1.000  0.000  0.000
       0.000  1.000  0.000
       0.000  0.000  1.000
     occupation matrix ns (before diag.):
       0.500  0.000  0.000
       0.000  0.500  0.000
       0.000  0.000  0.500
     ------------------------ ATOM   38 ------------------------
     Tr[ns( 38)] =   3.00000
     eigenvalues:
       0.500  0.500  0.500
     eigenvectors (columns):
       1.000  0.000  0.000
       0.000  1.000  0.000
       0.000  0.000  1.000
     occupation matrix ns (before diag.):
       0.500  0.000  0.000
       0.000  0.500  0.000
       0.000  0.000  0.500
     ------------------------ ATOM   39 ------------------------
     Tr[ns( 39)] =   3.00000
     eigenvalues:
       0.500  0.500  0.500
     eigenvectors (columns):
       1.000  0.000  0.000
       0.000  1.000  0.000
       0.000  0.000  1.000
     occupation matrix ns (before diag.):
       0.500  0.000  0.000
       0.000  0.500  0.000
       0.000  0.000  0.500
     ------------------------ ATOM   40 ------------------------
     Tr[ns( 40)] =   3.00000
     eigenvalues:
       0.500  0.500  0.500
     eigenvectors (columns):
       1.000  0.000  0.000
       0.000  1.000  0.000
       0.000  0.000  1.000
     occupation matrix ns (before diag.):
       0.500  0.000  0.000
       0.000  0.500  0.000
       0.000  0.000  0.500
     ------------------------ ATOM   41 ------------------------
     Tr[ns( 41)] =   1.00000
     eigenvalues:
       0.167  0.167  0.167
     eigenvectors (columns):
       1.000  0.000  0.000
       0.000  1.000  0.000
       0.000  0.000  1.000
     occupation matrix ns (before diag.):
       0.167  0.000  0.000
       0.000  0.167  0.000
       0.000  0.000  0.167
     ------------------------ ATOM   42 ------------------------
     Tr[ns( 42)] =   1.00000
     eigenvalues:
       0.167  0.167  0.167
     eigenvectors (columns):
       1.000  0.000  0.000
       0.000  1.000  0.000
       0.000  0.000  1.000
     occupation matrix ns (before diag.):
       0.167  0.000  0.000
       0.000  0.167  0.000
       0.000  0.000  0.167
     ------------------------ ATOM   43 ------------------------
     Tr[ns( 43)] =   1.00000
     eigenvalues:
       0.167  0.167  0.167
     eigenvectors (columns):
       1.000  0.000  0.000
       0.000  1.000  0.000
       0.000  0.000  1.000
     occupation matrix ns (before diag.):
       0.167  0.000  0.000
       0.000  0.167  0.000
       0.000  0.000  0.167
     ------------------------ ATOM   44 ------------------------
     Tr[ns( 44)] =   1.00000
     eigenvalues:
       0.167  0.167  0.167
     eigenvectors (columns):
       1.000  0.000  0.000
       0.000  1.000  0.000
       0.000  0.000  1.000
     occupation matrix ns (before diag.):
       0.167  0.000  0.000
       0.000  0.167  0.000
       0.000  0.000  0.167
     ------------------------ ATOM   45 ------------------------
     Tr[ns( 45)] =   3.00000
     eigenvalues:
       0.500  0.500  0.500
     eigenvectors (columns):
       1.000  0.000  0.000
       0.000  1.000  0.000
       0.000  0.000  1.000
     occupation matrix ns (before diag.):
       0.500  0.000  0.000
       0.000  0.500  0.000
       0.000  0.000  0.500
     ------------------------ ATOM   46 ------------------------
     Tr[ns( 46)] =   3.00000
     eigenvalues:
       0.500  0.500  0.500
     eigenvectors (columns):
       1.000  0.000  0.000
       0.000  1.000  0.000
       0.000  0.000  1.000
     occupation matrix ns (before diag.):
       0.500  0.000  0.000
       0.000  0.500  0.000
       0.000  0.000  0.500
     ------------------------ ATOM   47 ------------------------
     Tr[ns( 47)] =   3.00000
     eigenvalues:
       0.500  0.500  0.500
     eigenvectors (columns):
       1.000  0.000  0.000
       0.000  1.000  0.000
       0.000  0.000  1.000
     occupation matrix ns (before diag.):
       0.500  0.000  0.000
       0.000  0.500  0.000
       0.000  0.000  0.500
     ------------------------ ATOM   48 ------------------------
     Tr[ns( 48)] =   3.00000
     eigenvalues:
       0.500  0.500  0.500
     eigenvectors (columns):
       1.000  0.000  0.000
       0.000  1.000  0.000
       0.000  0.000  1.000
     occupation matrix ns (before diag.):
       0.500  0.000  0.000
       0.000  0.500  0.000
       0.000  0.000  0.500
     ------------------------ ATOM   49 ------------------------
     Tr[ns( 49)] =   1.00000
     eigenvalues:
       0.167  0.167  0.167
     eigenvectors (columns):
       1.000  0.000  0.000
       0.000  1.000  0.000
       0.000  0.000  1.000
     occupation matrix ns (before diag.):
       0.167  0.000  0.000
       0.000  0.167  0.000
       0.000  0.000  0.167
     ------------------------ ATOM   50 ------------------------
     Tr[ns( 50)] =   1.00000
     eigenvalues:
       0.167  0.167  0.167
     eigenvectors (columns):
       1.000  0.000  0.000
       0.000  1.000  0.000
       0.000  0.000  1.000
     occupation matrix ns (before diag.):
       0.167  0.000  0.000
       0.000  0.167  0.000
       0.000  0.000  0.167
     ------------------------ ATOM   51 ------------------------
     Tr[ns( 51)] =   1.00000
     eigenvalues:
       0.167  0.167  0.167
     eigenvectors (columns):
       1.000  0.000  0.000
       0.000  1.000  0.000
       0.000  0.000  1.000
     occupation matrix ns (before diag.):
       0.167  0.000  0.000
       0.000  0.167  0.000
       0.000  0.000  0.167
     ------------------------ ATOM   52 ------------------------
     Tr[ns( 52)] =   1.00000
     eigenvalues:
       0.167  0.167  0.167
     eigenvectors (columns):
       1.000  0.000  0.000
       0.000  1.000  0.000
       0.000  0.000  1.000
     occupation matrix ns (before diag.):
       0.167  0.000  0.000
       0.000  0.167  0.000
       0.000  0.000  0.167
     ------------------------ ATOM   53 ------------------------
     Tr[ns( 53)] =   3.00000
     eigenvalues:
       0.500  0.500  0.500
     eigenvectors (columns):
       1.000  0.000  0.000
       0.000  1.000  0.000
       0.000  0.000  1.000
     occupation matrix ns (before diag.):
       0.500  0.000  0.000
       0.000  0.500  0.000
       0.000  0.000  0.500
     ------------------------ ATOM   54 ------------------------
     Tr[ns( 54)] =   3.00000
     eigenvalues:
       0.500  0.500  0.500
     eigenvectors (columns):
       1.000  0.000  0.000
       0.000  1.000  0.000
       0.000  0.000  1.000
     occupation matrix ns (before diag.):
       0.500  0.000  0.000
       0.000  0.500  0.000
       0.000  0.000  0.500
     ------------------------ ATOM   55 ------------------------
     Tr[ns( 55)] =   3.00000
     eigenvalues:
       0.500  0.500  0.500
     eigenvectors (columns):
       1.000  0.000  0.000
       0.000  1.000  0.000
       0.000  0.000  1.000
     occupation matrix ns (before diag.):
       0.500  0.000  0.000
       0.000  0.500  0.000
       0.000  0.000  0.500
     ------------------------ ATOM   56 ------------------------
     Tr[ns( 56)] =   3.00000
     eigenvalues:
       0.500  0.500  0.500
     eigenvectors (columns):
       1.000  0.000  0.000
       0.000  1.000  0.000
       0.000  0.000  1.000
     occupation matrix ns (before diag.):
       0.500  0.000  0.000
       0.000  0.500  0.000
       0.000  0.000  0.500
     ------------------------ ATOM   57 ------------------------
     Tr[ns( 57)] =   1.00000
     eigenvalues:
       0.167  0.167  0.167
     eigenvectors (columns):
       1.000  0.000  0.000
       0.000  1.000  0.000
       0.000  0.000  1.000
     occupation matrix ns (before diag.):
       0.167  0.000  0.000
       0.000  0.167  0.000
       0.000  0.000  0.167
     ------------------------ ATOM   58 ------------------------
     Tr[ns( 58)] =   1.00000
     eigenvalues:
       0.167  0.167  0.167
     eigenvectors (columns):
       1.000  0.000  0.000
       0.000  1.000  0.000
       0.000  0.000  1.000
     occupation matrix ns (before diag.):
       0.167  0.000  0.000
       0.000  0.167  0.000
       0.000  0.000  0.167
     ------------------------ ATOM   59 ------------------------
     Tr[ns( 59)] =   1.00000
     eigenvalues:
       0.167  0.167  0.167
     eigenvectors (columns):
       1.000  0.000  0.000
       0.000  1.000  0.000
       0.000  0.000  1.000
     occupation matrix ns (before diag.):
       0.167  0.000  0.000
       0.000  0.167  0.000
       0.000  0.000  0.167
     ------------------------ ATOM   60 ------------------------
     Tr[ns( 60)] =   1.00000
     eigenvalues:
       0.167  0.167  0.167
     eigenvectors (columns):
       1.000  0.000  0.000
       0.000  1.000  0.000
       0.000  0.000  1.000
     occupation matrix ns (before diag.):
       0.167  0.000  0.000
       0.000  0.167  0.000
       0.000  0.000  0.167
     ------------------------ ATOM   61 ------------------------
     Tr[ns( 61)] =   3.00000
     eigenvalues:
       0.500  0.500  0.500
     eigenvectors (columns):
       1.000  0.000  0.000
       0.000  1.000  0.000
       0.000  0.000  1.000
     occupation matrix ns (before diag.):
       0.500  0.000  0.000
       0.000  0.500  0.000
       0.000  0.000  0.500
     ------------------------ ATOM   62 ------------------------
     Tr[ns( 62)] =   3.00000
     eigenvalues:
       0.500  0.500  0.500
     eigenvectors (columns):
       1.000  0.000  0.000
       0.000  1.000  0.000
       0.000  0.000  1.000
     occupation matrix ns (before diag.):
       0.500  0.000  0.000
       0.000  0.500  0.000
       0.000  0.000  0.500
     ------------------------ ATOM   63 ------------------------
     Tr[ns( 63)] =   3.00000
     eigenvalues:
       0.500  0.500  0.500
     eigenvectors (columns):
       1.000  0.000  0.000
       0.000  1.000  0.000
       0.000  0.000  1.000
     occupation matrix ns (before diag.):
       0.500  0.000  0.000
       0.000  0.500  0.000
       0.000  0.000  0.500
     ------------------------ ATOM   64 ------------------------
     Tr[ns( 64)] =   3.00000
     eigenvalues:
       0.500  0.500  0.500
     eigenvectors (columns):
       1.000  0.000  0.000
       0.000  1.000  0.000
       0.000  0.000  1.000
     occupation matrix ns (before diag.):
       0.500  0.000  0.000
       0.000  0.500  0.000
       0.000  0.000  0.500
     ------------------------ ATOM   65 ------------------------
     Tr[ns( 65)] =   1.00000
     eigenvalues:
       0.167  0.167  0.167
     eigenvectors (columns):
       1.000  0.000  0.000
       0.000  1.000  0.000
       0.000  0.000  1.000
     occupation matrix ns (before diag.):
       0.167  0.000  0.000
       0.000  0.167  0.000
       0.000  0.000  0.167
     ------------------------ ATOM   66 ------------------------
     Tr[ns( 66)] =   1.00000
     eigenvalues:
       0.167  0.167  0.167
     eigenvectors (columns):
       1.000  0.000  0.000
       0.000  1.000  0.000
       0.000  0.000  1.000
     occupation matrix ns (before diag.):
       0.167  0.000  0.000
       0.000  0.167  0.000
       0.000  0.000  0.167
     ------------------------ ATOM   67 ------------------------
     Tr[ns( 67)] =   1.00000
     eigenvalues:
       0.167  0.167  0.167
     eigenvectors (columns):
       1.000  0.000  0.000
       0.000  1.000  0.000
       0.000  0.000  1.000
     occupation matrix ns (before diag.):
       0.167  0.000  0.000
       0.000  0.167  0.000
       0.000  0.000  0.167
     ------------------------ ATOM   68 ------------------------
     Tr[ns( 68)] =   1.00000
     eigenvalues:
       0.167  0.167  0.167
     eigenvectors (columns):
       1.000  0.000  0.000
       0.000  1.000  0.000
       0.000  0.000  1.000
     occupation matrix ns (before diag.):
       0.167  0.000  0.000
       0.000  0.167  0.000
       0.000  0.000  0.167
     ------------------------ ATOM   69 ------------------------
     Tr[ns( 69)] =   3.00000
     eigenvalues:
       0.500  0.500  0.500
     eigenvectors (columns):
       1.000  0.000  0.000
       0.000  1.000  0.000
       0.000  0.000  1.000
     occupation matrix ns (before diag.):
       0.500  0.000  0.000
       0.000  0.500  0.000
       0.000  0.000  0.500
     ------------------------ ATOM   70 ------------------------
     Tr[ns( 70)] =   3.00000
     eigenvalues:
       0.500  0.500  0.500
     eigenvectors (columns):
       1.000  0.000  0.000
       0.000  1.000  0.000
       0.000  0.000  1.000
     occupation matrix ns (before diag.):
       0.500  0.000  0.000
       0.000  0.500  0.000
       0.000  0.000  0.500
     ------------------------ ATOM   71 ------------------------
     Tr[ns( 71)] =   3.00000
     eigenvalues:
       0.500  0.500  0.500
     eigenvectors (columns):
       1.000  0.000  0.000
       0.000  1.000  0.000
       0.000  0.000  1.000
     occupation matrix ns (before diag.):
       0.500  0.000  0.000
       0.000  0.500  0.000
       0.000  0.000  0.500
     ------------------------ ATOM   72 ------------------------
     Tr[ns( 72)] =   3.00000
     eigenvalues:
       0.500  0.500  0.500
     eigenvectors (columns):
       1.000  0.000  0.000
       0.000  1.000  0.000
       0.000  0.000  1.000
     occupation matrix ns (before diag.):
       0.500  0.000  0.000
       0.000  0.500  0.000
       0.000  0.000  0.500
     ------------------------ ATOM   73 ------------------------
     Tr[ns( 73)] =   1.00000
     eigenvalues:
       0.167  0.167  0.167
     eigenvectors (columns):
       1.000  0.000  0.000
       0.000  1.000  0.000
       0.000  0.000  1.000
     occupation matrix ns (before diag.):
       0.167  0.000  0.000
       0.000  0.167  0.000
       0.000  0.000  0.167
     ------------------------ ATOM   74 ------------------------
     Tr[ns( 74)] =   1.00000
     eigenvalues:
       0.167  0.167  0.167
     eigenvectors (columns):
       1.000  0.000  0.000
       0.000  1.000  0.000
       0.000  0.000  1.000
     occupation matrix ns (before diag.):
       0.167  0.000  0.000
       0.000  0.167  0.000
       0.000  0.000  0.167
     ------------------------ ATOM   75 ------------------------
     Tr[ns( 75)] =   1.00000
     eigenvalues:
       0.167  0.167  0.167
     eigenvectors (columns):
       1.000  0.000  0.000
       0.000  1.000  0.000
       0.000  0.000  1.000
     occupation matrix ns (before diag.):
       0.167  0.000  0.000
       0.000  0.167  0.000
       0.000  0.000  0.167
     ------------------------ ATOM   76 ------------------------
     Tr[ns( 76)] =   1.00000
     eigenvalues:
       0.167  0.167  0.167
     eigenvectors (columns):
       1.000  0.000  0.000
       0.000  1.000  0.000
       0.000  0.000  1.000
     occupation matrix ns (before diag.):
       0.167  0.000  0.000
       0.000  0.167  0.000
       0.000  0.000  0.167
     ------------------------ ATOM   77 ------------------------
     Tr[ns( 77)] =   3.00000
     eigenvalues:
       0.500  0.500  0.500
     eigenvectors (columns):
       1.000  0.000  0.000
       0.000  1.000  0.000
       0.000  0.000  1.000
     occupation matrix ns (before diag.):
       0.500  0.000  0.000
       0.000  0.500  0.000
       0.000  0.000  0.500
     ------------------------ ATOM   78 ------------------------
     Tr[ns( 78)] =   3.00000
     eigenvalues:
       0.500  0.500  0.500
     eigenvectors (columns):
       1.000  0.000  0.000
       0.000  1.000  0.000
       0.000  0.000  1.000
     occupation matrix ns (before diag.):
       0.500  0.000  0.000
       0.000  0.500  0.000
       0.000  0.000  0.500
     ------------------------ ATOM   79 ------------------------
     Tr[ns( 79)] =   3.00000
     eigenvalues:
       0.500  0.500  0.500
     eigenvectors (columns):
       1.000  0.000  0.000
       0.000  1.000  0.000
       0.000  0.000  1.000
     occupation matrix ns (before diag.):
       0.500  0.000  0.000
       0.000  0.500  0.000
       0.000  0.000  0.500
     ------------------------ ATOM   80 ------------------------
     Tr[ns( 80)] =   3.00000
     eigenvalues:
       0.500  0.500  0.500
     eigenvectors (columns):
       1.000  0.000  0.000
       0.000  1.000  0.000
       0.000  0.000  1.000
     occupation matrix ns (before diag.):
       0.500  0.000  0.000
       0.000  0.500  0.000
       0.000  0.000  0.500
     ------------------------ ATOM   81 ------------------------
     Tr[ns( 81)] =   1.00000
     eigenvalues:
       0.167  0.167  0.167
     eigenvectors (columns):
       1.000  0.000  0.000
       0.000  1.000  0.000
       0.000  0.000  1.000
     occupation matrix ns (before diag.):
       0.167  0.000  0.000
       0.000  0.167  0.000
       0.000  0.000  0.167
     ------------------------ ATOM   82 ------------------------
     Tr[ns( 82)] =   1.00000
     eigenvalues:
       0.167  0.167  0.167
     eigenvectors (columns):
       1.000  0.000  0.000
       0.000  1.000  0.000
       0.000  0.000  1.000
     occupation matrix ns (before diag.):
       0.167  0.000  0.000
       0.000  0.167  0.000
       0.000  0.000  0.167
     ------------------------ ATOM   83 ------------------------
     Tr[ns( 83)] =   1.00000
     eigenvalues:
       0.167  0.167  0.167
     eigenvectors (columns):
       1.000  0.000  0.000
       0.000  1.000  0.000
       0.000  0.000  1.000
     occupation matrix ns (before diag.):
       0.167  0.000  0.000
       0.000  0.167  0.000
       0.000  0.000  0.167
     ------------------------ ATOM   84 ------------------------
     Tr[ns( 84)] =   1.00000
     eigenvalues:
       0.167  0.167  0.167
     eigenvectors (columns):
       1.000  0.000  0.000
       0.000  1.000  0.000
       0.000  0.000  1.000
     occupation matrix ns (before diag.):
       0.167  0.000  0.000
       0.000  0.167  0.000
       0.000  0.000  0.167
     ------------------------ ATOM   85 ------------------------
     Tr[ns( 85)] =   3.00000
     eigenvalues:
       0.500  0.500  0.500
     eigenvectors (columns):
       1.000  0.000  0.000
       0.000  1.000  0.000
       0.000  0.000  1.000
     occupation matrix ns (before diag.):
       0.500  0.000  0.000
       0.000  0.500  0.000
       0.000  0.000  0.500
     ------------------------ ATOM   86 ------------------------
     Tr[ns( 86)] =   3.00000
     eigenvalues:
       0.500  0.500  0.500
     eigenvectors (columns):
       1.000  0.000  0.000
       0.000  1.000  0.000
       0.000  0.000  1.000
     occupation matrix ns (before diag.):
       0.500  0.000  0.000
       0.000  0.500  0.000
       0.000  0.000  0.500
     ------------------------ ATOM   87 ------------------------
     Tr[ns( 87)] =   3.00000
     eigenvalues:
       0.500  0.500  0.500
     eigenvectors (columns):
       1.000  0.000  0.000
       0.000  1.000  0.000
       0.000  0.000  1.000
     occupation matrix ns (before diag.):
       0.500  0.000  0.000
       0.000  0.500  0.000
       0.000  0.000  0.500
     ------------------------ ATOM   88 ------------------------
     Tr[ns( 88)] =   3.00000
     eigenvalues:
       0.500  0.500  0.500
     eigenvectors (columns):
       1.000  0.000  0.000
       0.000  1.000  0.000
       0.000  0.000  1.000
     occupation matrix ns (before diag.):
       0.500  0.000  0.000
       0.000  0.500  0.000
       0.000  0.000  0.500
     ------------------------ ATOM   89 ------------------------
     Tr[ns( 89)] =   1.00000
     eigenvalues:
       0.167  0.167  0.167
     eigenvectors (columns):
       1.000  0.000  0.000
       0.000  1.000  0.000
       0.000  0.000  1.000
     occupation matrix ns (before diag.):
       0.167  0.000  0.000
       0.000  0.167  0.000
       0.000  0.000  0.167
     ------------------------ ATOM   90 ------------------------
     Tr[ns( 90)] =   1.00000
     eigenvalues:
       0.167  0.167  0.167
     eigenvectors (columns):
       1.000  0.000  0.000
       0.000  1.000  0.000
       0.000  0.000  1.000
     occupation matrix ns (before diag.):
       0.167  0.000  0.000
       0.000  0.167  0.000
       0.000  0.000  0.167
     ------------------------ ATOM   91 ------------------------
     Tr[ns( 91)] =   1.00000
     eigenvalues:
       0.167  0.167  0.167
     eigenvectors (columns):
       1.000  0.000  0.000
       0.000  1.000  0.000
       0.000  0.000  1.000
     occupation matrix ns (before diag.):
       0.167  0.000  0.000
       0.000  0.167  0.000
       0.000  0.000  0.167
     ------------------------ ATOM   92 ------------------------
     Tr[ns( 92)] =   1.00000
     eigenvalues:
       0.167  0.167  0.167
     eigenvectors (columns):
       1.000  0.000  0.000
       0.000  1.000  0.000
       0.000  0.000  1.000
     occupation matrix ns (before diag.):
       0.167  0.000  0.000
       0.000  0.167  0.000
       0.000  0.000  0.167
     ------------------------ ATOM   93 ------------------------
     Tr[ns( 93)] =   3.00000
     eigenvalues:
       0.500  0.500  0.500
     eigenvectors (columns):
       1.000  0.000  0.000
       0.000  1.000  0.000
       0.000  0.000  1.000
     occupation matrix ns (before diag.):
       0.500  0.000  0.000
       0.000  0.500  0.000
       0.000  0.000  0.500
     ------------------------ ATOM   94 ------------------------
     Tr[ns( 94)] =   3.00000
     eigenvalues:
       0.500  0.500  0.500
     eigenvectors (columns):
       1.000  0.000  0.000
       0.000  1.000  0.000
       0.000  0.000  1.000
     occupation matrix ns (before diag.):
       0.500  0.000  0.000
       0.000  0.500  0.000
       0.000  0.000  0.500
     ------------------------ ATOM   95 ------------------------
     Tr[ns( 95)] =   3.00000
     eigenvalues:
       0.500  0.500  0.500
     eigenvectors (columns):
       1.000  0.000  0.000
       0.000  1.000  0.000
       0.000  0.000  1.000
     occupation matrix ns (before diag.):
       0.500  0.000  0.000
       0.000  0.500  0.000
       0.000  0.000  0.500
     ------------------------ ATOM   96 ------------------------
     Tr[ns( 96)] =   3.00000
     eigenvalues:
       0.500  0.500  0.500
     eigenvectors (columns):
       1.000  0.000  0.000
       0.000  1.000  0.000
       0.000  0.000  1.000
     occupation matrix ns (before diag.):
       0.500  0.000  0.000
       0.000  0.500  0.000
       0.000  0.000  0.500
     ------------------------ ATOM   97 ------------------------
     Tr[ns( 97)] =   1.00000
     eigenvalues:
       0.167  0.167  0.167
     eigenvectors (columns):
       1.000  0.000  0.000
       0.000  1.000  0.000
       0.000  0.000  1.000
     occupation matrix ns (before diag.):
       0.167  0.000  0.000
       0.000  0.167  0.000
       0.000  0.000  0.167
     ------------------------ ATOM   98 ------------------------
     Tr[ns( 98)] =   1.00000
     eigenvalues:
       0.167  0.167  0.167
     eigenvectors (columns):
       1.000  0.000  0.000
       0.000  1.000  0.000
       0.000  0.000  1.000
     occupation matrix ns (before diag.):
       0.167  0.000  0.000
       0.000  0.167  0.000
       0.000  0.000  0.167
     ------------------------ ATOM   99 ------------------------
     Tr[ns( 99)] =   1.00000
     eigenvalues:
       0.167  0.167  0.167
     eigenvectors (columns):
       1.000  0.000  0.000
       0.000  1.000  0.000
       0.000  0.000  1.000
     occupation matrix ns (before diag.):
       0.167  0.000  0.000
       0.000  0.167  0.000
       0.000  0.000  0.167
     ------------------------ ATOM  100 ------------------------
     Tr[ns(100)] =   1.00000
     eigenvalues:
       0.167  0.167  0.167
     eigenvectors (columns):
       1.000  0.000  0.000
       0.000  1.000  0.000
       0.000  0.000  1.000
     occupation matrix ns (before diag.):
       0.167  0.000  0.000
       0.000  0.167  0.000
       0.000  0.000  0.167
     ------------------------ ATOM  101 ------------------------
     Tr[ns(101)] =   3.00000
     eigenvalues:
       0.500  0.500  0.500
     eigenvectors (columns):
       1.000  0.000  0.000
       0.000  1.000  0.000
       0.000  0.000  1.000
     occupation matrix ns (before diag.):
       0.500  0.000  0.000
       0.000  0.500  0.000
       0.000  0.000  0.500
     ------------------------ ATOM  102 ------------------------
     Tr[ns(102)] =   3.00000
     eigenvalues:
       0.500  0.500  0.500
     eigenvectors (columns):
       1.000  0.000  0.000
       0.000  1.000  0.000
       0.000  0.000  1.000
     occupation matrix ns (before diag.):
       0.500  0.000  0.000
       0.000  0.500  0.000
       0.000  0.000  0.500
     ------------------------ ATOM  103 ------------------------
     Tr[ns(103)] =   3.00000
     eigenvalues:
       0.500  0.500  0.500
     eigenvectors (columns):
       1.000  0.000  0.000
       0.000  1.000  0.000
       0.000  0.000  1.000
     occupation matrix ns (before diag.):
       0.500  0.000  0.000
       0.000  0.500  0.000
       0.000  0.000  0.500
     ------------------------ ATOM  104 ------------------------
     Tr[ns(104)] =   3.00000
     eigenvalues:
       0.500  0.500  0.500
     eigenvectors (columns):
       1.000  0.000  0.000
       0.000  1.000  0.000
       0.000  0.000  1.000
     occupation matrix ns (before diag.):
       0.500  0.000  0.000
       0.000  0.500  0.000
       0.000  0.000  0.500
     ------------------------ ATOM  105 ------------------------
     Tr[ns(105)] =   1.00000
     eigenvalues:
       0.167  0.167  0.167
     eigenvectors (columns):
       1.000  0.000  0.000
       0.000  1.000  0.000
       0.000  0.000  1.000
     occupation matrix ns (before diag.):
       0.167  0.000  0.000
       0.000  0.167  0.000
       0.000  0.000  0.167
     ------------------------ ATOM  106 ------------------------
     Tr[ns(106)] =   1.00000
     eigenvalues:
       0.167  0.167  0.167
     eigenvectors (columns):
       1.000  0.000  0.000
       0.000  1.000  0.000
       0.000  0.000  1.000
     occupation matrix ns (before diag.):
       0.167  0.000  0.000
       0.000  0.167  0.000
       0.000  0.000  0.167
     ------------------------ ATOM  107 ------------------------
     Tr[ns(107)] =   1.00000
     eigenvalues:
       0.167  0.167  0.167
     eigenvectors (columns):
       1.000  0.000  0.000
       0.000  1.000  0.000
       0.000  0.000  1.000
     occupation matrix ns (before diag.):
       0.167  0.000  0.000
       0.000  0.167  0.000
       0.000  0.000  0.167
     ------------------------ ATOM  108 ------------------------
     Tr[ns(108)] =   1.00000
     eigenvalues:
       0.167  0.167  0.167
     eigenvectors (columns):
       1.000  0.000  0.000
       0.000  1.000  0.000
       0.000  0.000  1.000
     occupation matrix ns (before diag.):
       0.167  0.000  0.000
       0.000  0.167  0.000
       0.000  0.000  0.167
     ------------------------ ATOM  109 ------------------------
     Tr[ns(109)] =   3.00000
     eigenvalues:
       0.500  0.500  0.500
     eigenvectors (columns):
       1.000  0.000  0.000
       0.000  1.000  0.000
       0.000  0.000  1.000
     occupation matrix ns (before diag.):
       0.500  0.000  0.000
       0.000  0.500  0.000
       0.000  0.000  0.500
     ------------------------ ATOM  110 ------------------------
     Tr[ns(110)] =   3.00000
     eigenvalues:
       0.500  0.500  0.500
     eigenvectors (columns):
       1.000  0.000  0.000
       0.000  1.000  0.000
       0.000  0.000  1.000
     occupation matrix ns (before diag.):
       0.500  0.000  0.000
       0.000  0.500  0.000
       0.000  0.000  0.500
     ------------------------ ATOM  111 ------------------------
     Tr[ns(111)] =   3.00000
     eigenvalues:
       0.500  0.500  0.500
     eigenvectors (columns):
       1.000  0.000  0.000
       0.000  1.000  0.000
       0.000  0.000  1.000
     occupation matrix ns (before diag.):
       0.500  0.000  0.000
       0.000  0.500  0.000
       0.000  0.000  0.500
     ------------------------ ATOM  112 ------------------------
     Tr[ns(112)] =   3.00000
     eigenvalues:
       0.500  0.500  0.500
     eigenvectors (columns):
       1.000  0.000  0.000
       0.000  1.000  0.000
       0.000  0.000  1.000
     occupation matrix ns (before diag.):
       0.500  0.000  0.000
       0.000  0.500  0.000
       0.000  0.000  0.500
     ------------------------ ATOM  113 ------------------------
     Tr[ns(113)] =   1.00000
     eigenvalues:
       0.167  0.167  0.167
     eigenvectors (columns):
       1.000  0.000  0.000
       0.000  1.000  0.000
       0.000  0.000  1.000
     occupation matrix ns (before diag.):
       0.167  0.000  0.000
       0.000  0.167  0.000
       0.000  0.000  0.167
     ------------------------ ATOM  114 ------------------------
     Tr[ns(114)] =   1.00000
     eigenvalues:
       0.167  0.167  0.167
     eigenvectors (columns):
       1.000  0.000  0.000
       0.000  1.000  0.000
       0.000  0.000  1.000
     occupation matrix ns (before diag.):
       0.167  0.000  0.000
       0.000  0.167  0.000
       0.000  0.000  0.167
     ------------------------ ATOM  115 ------------------------
     Tr[ns(115)] =   1.00000
     eigenvalues:
       0.167  0.167  0.167
     eigenvectors (columns):
       1.000  0.000  0.000
       0.000  1.000  0.000
       0.000  0.000  1.000
     occupation matrix ns (before diag.):
       0.167  0.000  0.000
       0.000  0.167  0.000
       0.000  0.000  0.167
     ------------------------ ATOM  116 ------------------------
     Tr[ns(116)] =   1.00000
     eigenvalues:
       0.167  0.167  0.167
     eigenvectors (columns):
       1.000  0.000  0.000
       0.000  1.000  0.000
       0.000  0.000  1.000
     occupation matrix ns (before diag.):
       0.167  0.000  0.000
       0.000  0.167  0.000
       0.000  0.000  0.167
     ------------------------ ATOM  117 ------------------------
     Tr[ns(117)] =   3.00000
     eigenvalues:
       0.500  0.500  0.500
     eigenvectors (columns):
       1.000  0.000  0.000
       0.000  1.000  0.000
       0.000  0.000  1.000
     occupation matrix ns (before diag.):
       0.500  0.000  0.000
       0.000  0.500  0.000
       0.000  0.000  0.500
     ------------------------ ATOM  118 ------------------------
     Tr[ns(118)] =   3.00000
     eigenvalues:
       0.500  0.500  0.500
     eigenvectors (columns):
       1.000  0.000  0.000
       0.000  1.000  0.000
       0.000  0.000  1.000
     occupation matrix ns (before diag.):
       0.500  0.000  0.000
       0.000  0.500  0.000
       0.000  0.000  0.500
     ------------------------ ATOM  119 ------------------------
     Tr[ns(119)] =   3.00000
     eigenvalues:
       0.500  0.500  0.500
     eigenvectors (columns):
       1.000  0.000  0.000
       0.000  1.000  0.000
       0.000  0.000  1.000
     occupation matrix ns (before diag.):
       0.500  0.000  0.000
       0.000  0.500  0.000
       0.000  0.000  0.500
     ------------------------ ATOM  120 ------------------------
     Tr[ns(120)] =   3.00000
     eigenvalues:
       0.500  0.500  0.500
     eigenvectors (columns):
       1.000  0.000  0.000
       0.000  1.000  0.000
       0.000  0.000  1.000
     occupation matrix ns (before diag.):
       0.500  0.000  0.000
       0.000  0.500  0.000
       0.000  0.000  0.500
     ------------------------ ATOM  121 ------------------------
     Tr[ns(121)] =   1.00000
     eigenvalues:
       0.167  0.167  0.167
     eigenvectors (columns):
       1.000  0.000  0.000
       0.000  1.000  0.000
       0.000  0.000  1.000
     occupation matrix ns (before diag.):
       0.167  0.000  0.000
       0.000  0.167  0.000
       0.000  0.000  0.167
     ------------------------ ATOM  122 ------------------------
     Tr[ns(122)] =   1.00000
     eigenvalues:
       0.167  0.167  0.167
     eigenvectors (columns):
       1.000  0.000  0.000
       0.000  1.000  0.000
       0.000  0.000  1.000
     occupation matrix ns (before diag.):
       0.167  0.000  0.000
       0.000  0.167  0.000
       0.000  0.000  0.167
     ------------------------ ATOM  123 ------------------------
     Tr[ns(123)] =   1.00000
     eigenvalues:
       0.167  0.167  0.167
     eigenvectors (columns):
       1.000  0.000  0.000
       0.000  1.000  0.000
       0.000  0.000  1.000
     occupation matrix ns (before diag.):
       0.167  0.000  0.000
       0.000  0.167  0.000
       0.000  0.000  0.167
     ------------------------ ATOM  124 ------------------------
     Tr[ns(124)] =   1.00000
     eigenvalues:
       0.167  0.167  0.167
     eigenvectors (columns):
       1.000  0.000  0.000
       0.000  1.000  0.000
       0.000  0.000  1.000
     occupation matrix ns (before diag.):
       0.167  0.000  0.000
       0.000  0.167  0.000
       0.000  0.000  0.167
     ------------------------ ATOM  125 ------------------------
     Tr[ns(125)] =   3.00000
     eigenvalues:
       0.500  0.500  0.500
     eigenvectors (columns):
       1.000  0.000  0.000
       0.000  1.000  0.000
       0.000  0.000  1.000
     occupation matrix ns (before diag.):
       0.500  0.000  0.000
       0.000  0.500  0.000
       0.000  0.000  0.500
     ------------------------ ATOM  126 ------------------------
     Tr[ns(126)] =   3.00000
     eigenvalues:
       0.500  0.500  0.500
     eigenvectors (columns):
       1.000  0.000  0.000
       0.000  1.000  0.000
       0.000  0.000  1.000
     occupation matrix ns (before diag.):
       0.500  0.000  0.000
       0.000  0.500  0.000
       0.000  0.000  0.500
     ------------------------ ATOM  127 ------------------------
     Tr[ns(127)] =   3.00000
     eigenvalues:
       0.500  0.500  0.500
     eigenvectors (columns):
       1.000  0.000  0.000
       0.000  1.000  0.000
       0.000  0.000  1.000
     occupation matrix ns (before diag.):
       0.500  0.000  0.000
       0.000  0.500  0.000
       0.000  0.000  0.500
     ------------------------ ATOM  128 ------------------------
     Tr[ns(128)] =   3.00000
     eigenvalues:
       0.500  0.500  0.500
     eigenvectors (columns):
       1.000  0.000  0.000
       0.000  1.000  0.000
       0.000  0.000  1.000
     occupation matrix ns (before diag.):
       0.500  0.000  0.000
       0.000  0.500  0.000
       0.000  0.000  0.500
     ------------------------ ATOM  129 ------------------------
     Tr[ns(129)] =   1.00000
     eigenvalues:
       0.167  0.167  0.167
     eigenvectors (columns):
       1.000  0.000  0.000
       0.000  1.000  0.000
       0.000  0.000  1.000
     occupation matrix ns (before diag.):
       0.167  0.000  0.000
       0.000  0.167  0.000
       0.000  0.000  0.167
     ------------------------ ATOM  130 ------------------------
     Tr[ns(130)] =   1.00000
     eigenvalues:
       0.167  0.167  0.167
     eigenvectors (columns):
       1.000  0.000  0.000
       0.000  1.000  0.000
       0.000  0.000  1.000
     occupation matrix ns (before diag.):
       0.167  0.000  0.000
       0.000  0.167  0.000
       0.000  0.000  0.167
     ------------------------ ATOM  131 ------------------------
     Tr[ns(131)] =   1.00000
     eigenvalues:
       0.167  0.167  0.167
     eigenvectors (columns):
       1.000  0.000  0.000
       0.000  1.000  0.000
       0.000  0.000  1.000
     occupation matrix ns (before diag.):
       0.167  0.000  0.000
       0.000  0.167  0.000
       0.000  0.000  0.167
     ------------------------ ATOM  132 ------------------------
     Tr[ns(132)] =   1.00000
     eigenvalues:
       0.167  0.167  0.167
     eigenvectors (columns):
       1.000  0.000  0.000
       0.000  1.000  0.000
       0.000  0.000  1.000
     occupation matrix ns (before diag.):
       0.167  0.000  0.000
       0.000  0.167  0.000
       0.000  0.000  0.167
     ------------------------ ATOM  133 ------------------------
     Tr[ns(133)] =   3.00000
     eigenvalues:
       0.500  0.500  0.500
     eigenvectors (columns):
       1.000  0.000  0.000
       0.000  1.000  0.000
       0.000  0.000  1.000
     occupation matrix ns (before diag.):
       0.500  0.000  0.000
       0.000  0.500  0.000
       0.000  0.000  0.500
     ------------------------ ATOM  134 ------------------------
     Tr[ns(134)] =   3.00000
     eigenvalues:
       0.500  0.500  0.500
     eigenvectors (columns):
       1.000  0.000  0.000
       0.000  1.000  0.000
       0.000  0.000  1.000
     occupation matrix ns (before diag.):
       0.500  0.000  0.000
       0.000  0.500  0.000
       0.000  0.000  0.500
     ------------------------ ATOM  135 ------------------------
     Tr[ns(135)] =   3.00000
     eigenvalues:
       0.500  0.500  0.500
     eigenvectors (columns):
       1.000  0.000  0.000
       0.000  1.000  0.000
       0.000  0.000  1.000
     occupation matrix ns (before diag.):
       0.500  0.000  0.000
       0.000  0.500  0.000
       0.000  0.000  0.500
     ------------------------ ATOM  136 ------------------------
     Tr[ns(136)] =   3.00000
     eigenvalues:
       0.500  0.500  0.500
     eigenvectors (columns):
       1.000  0.000  0.000
       0.000  1.000  0.000
       0.000  0.000  1.000
     occupation matrix ns (before diag.):
       0.500  0.000  0.000
       0.000  0.500  0.000
       0.000  0.000  0.500
     ------------------------ ATOM  137 ------------------------
     Tr[ns(137)] =   1.00000
     eigenvalues:
       0.167  0.167  0.167
     eigenvectors (columns):
       1.000  0.000  0.000
       0.000  1.000  0.000
       0.000  0.000  1.000
     occupation matrix ns (before diag.):
       0.167  0.000  0.000
       0.000  0.167  0.000
       0.000  0.000  0.167
     ------------------------ ATOM  138 ------------------------
     Tr[ns(138)] =   1.00000
     eigenvalues:
       0.167  0.167  0.167
     eigenvectors (columns):
       1.000  0.000  0.000
       0.000  1.000  0.000
       0.000  0.000  1.000
     occupation matrix ns (before diag.):
       0.167  0.000  0.000
       0.000  0.167  0.000
       0.000  0.000  0.167
     ------------------------ ATOM  139 ------------------------
     Tr[ns(139)] =   1.00000
     eigenvalues:
       0.167  0.167  0.167
     eigenvectors (columns):
       1.000  0.000  0.000
       0.000  1.000  0.000
       0.000  0.000  1.000
     occupation matrix ns (before diag.):
       0.167  0.000  0.000
       0.000  0.167  0.000
       0.000  0.000  0.167
     ------------------------ ATOM  140 ------------------------
     Tr[ns(140)] =   1.00000
     eigenvalues:
       0.167  0.167  0.167
     eigenvectors (columns):
       1.000  0.000  0.000
       0.000  1.000  0.000
       0.000  0.000  1.000
     occupation matrix ns (before diag.):
       0.167  0.000  0.000
       0.000  0.167  0.000
       0.000  0.000  0.167
     ------------------------ ATOM  141 ------------------------
     Tr[ns(141)] =   3.00000
     eigenvalues:
       0.500  0.500  0.500
     eigenvectors (columns):
       1.000  0.000  0.000
       0.000  1.000  0.000
       0.000  0.000  1.000
     occupation matrix ns (before diag.):
       0.500  0.000  0.000
       0.000  0.500  0.000
       0.000  0.000  0.500
     ------------------------ ATOM  142 ------------------------
     Tr[ns(142)] =   3.00000
     eigenvalues:
       0.500  0.500  0.500
     eigenvectors (columns):
       1.000  0.000  0.000
       0.000  1.000  0.000
       0.000  0.000  1.000
     occupation matrix ns (before diag.):
       0.500  0.000  0.000
       0.000  0.500  0.000
       0.000  0.000  0.500
     ------------------------ ATOM  143 ------------------------
     Tr[ns(143)] =   3.00000
     eigenvalues:
       0.500  0.500  0.500
     eigenvectors (columns):
       1.000  0.000  0.000
       0.000  1.000  0.000
       0.000  0.000  1.000
     occupation matrix ns (before diag.):
       0.500  0.000  0.000
       0.000  0.500  0.000
       0.000  0.000  0.500
     ------------------------ ATOM  144 ------------------------
     Tr[ns(144)] =   3.00000
     eigenvalues:
       0.500  0.500  0.500
     eigenvectors (columns):
       1.000  0.000  0.000
       0.000  1.000  0.000
       0.000  0.000  1.000
     occupation matrix ns (before diag.):
       0.500  0.000  0.000
       0.000  0.500  0.000
       0.000  0.000  0.500
     ------------------------ ATOM  145 ------------------------
     Tr[ns(145)] =   1.00000
     eigenvalues:
       0.167  0.167  0.167
     eigenvectors (columns):
       1.000  0.000  0.000
       0.000  1.000  0.000
       0.000  0.000  1.000
     occupation matrix ns (before diag.):
       0.167  0.000  0.000
       0.000  0.167  0.000
       0.000  0.000  0.167
     ------------------------ ATOM  146 ------------------------
     Tr[ns(146)] =   1.00000
     eigenvalues:
       0.167  0.167  0.167
     eigenvectors (columns):
       1.000  0.000  0.000
       0.000  1.000  0.000
       0.000  0.000  1.000
     occupation matrix ns (before diag.):
       0.167  0.000  0.000
       0.000  0.167  0.000
       0.000  0.000  0.167
     ------------------------ ATOM  147 ------------------------
     Tr[ns(147)] =   1.00000
     eigenvalues:
       0.167  0.167  0.167
     eigenvectors (columns):
       1.000  0.000  0.000
       0.000  1.000  0.000
       0.000  0.000  1.000
     occupation matrix ns (before diag.):
       0.167  0.000  0.000
       0.000  0.167  0.000
       0.000  0.000  0.167
     ------------------------ ATOM  148 ------------------------
     Tr[ns(148)] =   1.00000
     eigenvalues:
       0.167  0.167  0.167
     eigenvectors (columns):
       1.000  0.000  0.000
       0.000  1.000  0.000
       0.000  0.000  1.000
     occupation matrix ns (before diag.):
       0.167  0.000  0.000
       0.000  0.167  0.000
       0.000  0.000  0.167
     ------------------------ ATOM  149 ------------------------
     Tr[ns(149)] =   3.00000
     eigenvalues:
       0.500  0.500  0.500
     eigenvectors (columns):
       1.000  0.000  0.000
       0.000  1.000  0.000
       0.000  0.000  1.000
     occupation matrix ns (before diag.):
       0.500  0.000  0.000
       0.000  0.500  0.000
       0.000  0.000  0.500
     ------------------------ ATOM  150 ------------------------
     Tr[ns(150)] =   3.00000
     eigenvalues:
       0.500  0.500  0.500
     eigenvectors (columns):
       1.000  0.000  0.000
       0.000  1.000  0.000
       0.000  0.000  1.000
     occupation matrix ns (before diag.):
       0.500  0.000  0.000
       0.000  0.500  0.000
       0.000  0.000  0.500
     ------------------------ ATOM  151 ------------------------
     Tr[ns(151)] =   3.00000
     eigenvalues:
       0.500  0.500  0.500
     eigenvectors (columns):
       1.000  0.000  0.000
       0.000  1.000  0.000
       0.000  0.000  1.000
     occupation matrix ns (before diag.):
       0.500  0.000  0.000
       0.000  0.500  0.000
       0.000  0.000  0.500
     ------------------------ ATOM  152 ------------------------
[...]
   -19.5217 -19.5214 -19.5212 -19.5211 -19.5210 -19.5208 -19.5207 -19.5205
   -19.5201 -19.5200 -19.5199 -19.5193 -19.5192 -19.5191 -19.5189 -19.5189
   -19.5187 -19.5185 -19.5184 -19.5183 -19.5183 -19.5182 -19.5181 -19.5180
   -19.5174 -19.5173 -19.5172 -19.5171 -19.5170 -19.5165 -19.5163 -19.5161
   -19.5154 -19.5151 -19.5150 -19.5145 -19.5141 -19.5140 -19.5139 -19.5136
   -19.5135 -19.5135 -19.5132 -19.5130 -19.5130 -19.5130 -19.5128 -19.5127
   -19.5123 -19.5116 -19.5114 -19.5113 -19.5112 -19.5108 -19.5107 -19.5105
   -19.5102 -19.5102 -19.5100 -19.5098 -19.5097 -19.5096 -19.5091 -19.5088
   -19.5085 -19.5082 -19.5078 -19.5078 -19.5077 -19.5072 -19.5071 -19.5070
   -19.5068 -19.5066 -19.5065 -19.5062 -19.5061 -19.5058 -19.5055 -19.5053
   -19.5052 -19.5050 -19.5049 -19.5047 -19.5044 -19.5041 -19.5039 -19.5039
   -19.5038 -19.5035 -19.5034 -19.5034 -19.5034 -19.5032 -19.5032 -19.5030
   -19.5029 -19.5028 -19.5022 -19.5018 -19.5018 -19.5017 -19.5016 -19.5014
   -19.5011 -19.5011 -19.5010 -19.5005 -19.5004 -19.5004 -19.5000 -19.4994
   -19.4992 -19.4991 -19.4991 -19.4990 -19.4987 -19.4986 -19.4985 -19.4982
   -19.4976 -19.4976 -19.4975 -19.4973 -19.4971 -19.4969 -19.4969 -19.4967
   -19.4967 -19.4967 -19.4962 -19.4959 -19.4955 -19.4954 -19.4952 -19.4950
   -19.4948 -19.4945 -19.4943 -19.4942 -19.4941 -19.4941 -19.4939 -19.4938
   -19.4937 -19.4934 -19.4927 -19.4926 -19.4925 -19.4920 -19.4917 -19.4911
   -19.4905 -19.4901 -19.4897 -19.4890 -19.4885 -19.4885 -19.4883 -19.4875
   -19.4872 -19.4871 -19.4857 -19.4856 -19.4852 -19.4849 -19.4848 -19.4843
   -19.4837 -19.4834 -19.4834 -19.4833 -19.4831 -19.4827 -19.4824 -19.4820
   -19.4817 -19.4808 -19.4804 -19.4801 -19.4798 -19.4797 -19.4797 -19.4784
   -19.4784 -19.4767 -19.4757 -19.4754 -19.4748 -19.4745 -19.4740 -19.4737
   -19.4736 -19.4723 -19.4718 -19.4714 -19.4711 -19.4702 -19.4700 -19.4641
   -19.4587 -19.4565 -19.4564 -19.4495  -7.3557  -7.3483  -7.3423  -7.3389
    -7.3369  -7.3362  -7.3287  -7.3270  -7.3256  -7.3245  -7.3228  -7.3209
    -7.3190  -7.3160  -7.3149  -7.3130  -7.3110  -7.3057  -7.3035  -7.3010
    -7.3008  -7.3004  -7.3000  -7.2969  -7.2964  -7.2951  -7.2931  -7.2922
    -7.2909  -7.2903  -7.2902  -7.2899  -7.2876  -7.2871  -7.2861  -7.2845
    -7.2845  -7.2835  -7.2827  -7.2822  -7.2817  -7.2810  -7.2806  -7.2803
    -7.2796  -7.2777  -7.2773  -7.2768  -7.2762  -7.2750  -7.2745  -7.2741
    -7.2737  -7.2730  -7.2726  -7.2724  -7.2722  -7.2721  -7.2684  -7.2683
    -7.2682  -7.2665  -7.2655  -7.2650  -7.2632  -7.2631  -7.2630  -7.2624
    -7.2620  -7.2604  -7.2595  -7.2590  -7.2584  -7.2578  -7.2570  -7.2568
    -7.2565  -7.2563  -7.2561  -7.2543  -7.2543  -7.2537  -7.2526  -7.2524
    -7.2507  -7.2501  -7.2492  -7.2487  -7.2480  -7.2477  -7.2474  -7.2469
    -7.2459  -7.2452  -7.2444  -7.2440  -7.2427  -7.2423  -7.2415  -7.2410
    -7.2408  -7.2401  -7.2399  -7.2395  -7.2387  -7.2379  -7.2376  -7.2372
    -7.2370  -7.2355  -7.2350  -7.2341  -7.2339  -7.2331  -7.2323  -7.2320
    -7.2316  -7.2315  -7.2309  -7.2304  -7.2299  -7.2294  -7.2288  -7.2287
    -7.2286  -7.2282  -7.2278  -7.2276  -7.2271  -7.2264  -7.2263  -7.2260
    -7.2257  -7.2253  -7.2250  -7.2241  -7.2237  -7.2237  -7.2230  -7.2228
    -7.2225  -7.2215  -7.2214  -7.2209  -7.2205  -7.2202  -7.2194  -7.2184
    -7.2184  -7.2181  -7.2177  -7.2171  -7.2170  -7.2165  -7.2160  -7.2159
    -7.2153  -7.2148  -7.2141  -7.2138  -7.2128  -7.2124  -7.2121  -7.2115
    -7.2112  -7.2110  -7.2106  -7.2101  -7.2097  -7.2096  -7.2092  -7.2086
    -7.2083  -7.2081  -7.2077  -7.2072  -7.2069  -7.2066  -7.2063  -7.2058
    -7.2052  -7.2046  -7.2043  -7.2039  -7.2036  -7.2035  -7.2029  -7.2022
    -7.2019  -7.2017  -7.2015  -7.2007  -7.2003  -7.1999  -7.1992  -7.1990
    -7.1989  -7.1982  -7.1977  -7.1971  -7.1970  -7.1963  -7.1956  -7.1953
    -7.1946  -7.1945  -7.1940  -7.1928  -7.1920  -7.1913  -7.1909  -7.1902
    -7.1901  -7.1896  -7.1892  -7.1890  -7.1865  -7.1861  -7.1855  -7.1850
    -7.1848  -7.1844  -7.1836  -7.1836  -7.1828  -7.1825  -7.1819  -7.1810
    -7.1803  -7.1801  -7.1798  -7.1797  -7.1786  -7.1781  -7.1778  -7.1776
    -7.1770  -7.1766  -7.1764  -7.1760  -7.1756  -7.1750  -7.1748  -7.1746
    -7.1741  -7.1739  -7.1732  -7.1727  -7.1725  -7.1721  -7.1717  -7.1708
    -7.1699  -7.1697  -7.1694  -7.1690  -7.1688  -7.1680  -7.1679  -7.1676
    -7.1671  -7.1668  -7.1666  -7.1663  -7.1660  -7.1658  -7.1657  -7.1655
    -7.1652  -7.1649  -7.1648  -7.1641  -7.1638  -7.1638  -7.1633  -7.1628
    -7.1622  -7.1621  -7.1618  -7.1613  -7.1610  -7.1604  -7.1600  -7.1599
    -7.1593  -7.1589  -7.1585  -7.1583  -7.1580  -7.1576  -7.1572  -7.1571
    -7.1570  -7.1567  -7.1560  -7.1558  -7.1555  -7.1554  -7.1552  -7.1551
    -7.1547  -7.1546  -7.1543  -7.1539  -7.1535  -7.1532  -7.1529  -7.1528
    -7.1526  -7.1517  -7.1514  -7.1508  -7.1507  -7.1503  -7.1502  -7.1498
    -7.1491  -7.1487  -7.1483  -7.1480  -7.1478  -7.1477  -7.1475  -7.1472
    -7.1466  -7.1462  -7.1457  -7.1455  -7.1449  -7.1447  -7.1443  -7.1439
    -7.1435  -7.1429  -7.1418  -7.1414  -7.1409  -7.1405  -7.1402  -7.1397
    -7.1394  -7.1390  -7.1386  -7.1382  -7.1380  -7.1377  -7.1375  -7.1368
    -7.1365  -7.1361  -7.1357  -7.1354  -7.1354  -7.1350  -7.1344  -7.1340
    -7.1335  -7.1333  -7.1328  -7.1327  -7.1322  -7.1315  -7.1311  -7.1305
    -7.1295  -7.1295  -7.1289  -7.1287  -7.1285  -7.1281  -7.1278  -7.1276
    -7.1274  -7.1270  -7.1267  -7.1264  -7.1259  -7.1256  -7.1251  -7.1247
    -7.1244  -7.1239  -7.1238  -7.1235  -7.1230  -7.1227  -7.1223  -7.1221
    -7.1216  -7.1211  -7.1209  -7.1204  -7.1197  -7.1192  -7.1186  -7.1184
    -7.1177  -7.1174  -7.1172  -7.1170  -7.1166  -7.1164  -7.1153  -7.1150
    -7.1148  -7.1142  -7.1139  -7.1136  -7.1128  -7.1121  -7.1115  -7.1113
    -7.1102  -7.1100  -7.1098  -7.1095  -7.1092  -7.1087  -7.1086  -7.1078
    -7.1077  -7.1071  -7.1060  -7.1056  -7.1051  -7.1044  -7.1035  -7.1029
    -7.1024  -7.1022  -7.1021  -7.1016  -7.1011  -7.1006  -7.1003  -7.1002
    -7.0978  -7.0975  -7.0969  -7.0964  -7.0963  -7.0959  -7.0956  -7.0953
    -7.0948  -7.0942  -7.0936  -7.0929  -7.0922  -7.0918  -7.0906  -7.0905
    -7.0901  -7.0899  -7.0894  -7.0887  -7.0878  -7.0872  -7.0862  -7.0859
    -7.0851  -7.0845  -7.0839  -7.0832  -7.0827  -7.0821  -7.0807  -7.0805
    -7.0799  -7.0797  -7.0790  -7.0789  -7.0784  -7.0778  -7.0774  -7.0768
    -7.0758  -7.0754  -7.0741  -7.0737  -7.0730  -7.0722  -7.0720  -7.0716
    -7.0713  -7.0707  -7.0699  -7.0697  -7.0694  -7.0687  -7.0680  -7.0668
    -7.0651  -7.0648  -7.0646  -7.0637  -7.0633  -7.0627  -7.0619  -7.0615
    -7.0603  -7.0598  -7.0584  -7.0554  -7.0517  -7.0497  -7.0471  -7.0464
    -7.0463  -7.0445  -7.0431  -7.0413  -7.0404  -7.0387  -7.0359  -7.0336
    -7.0328  -7.0289  -7.0278  -7.0275  -7.0271  -7.0269  -7.0256  -7.0245
    -7.0240  -7.0238  -7.0220  -7.0108  -7.0082  -7.0054  -7.0039  -7.0039
    -7.0019  -7.0015  -6.9949  -6.9924  -6.9829  -6.9796  -6.9640  -6.9625
    -3.5683  -3.5204  -3.4829  -3.4092  -3.3361  -3.3068  -3.2718  -3.2447
    -3.2176  -3.1685  -3.1652  -3.1121  -3.0456  -3.0226  -2.9825  -2.9455
    -2.9411  -2.9012  -2.8957  -2.8441  -2.8234  -2.8135  -2.7863  -2.7656
    -2.7027  -2.7015  -2.6782  -2.6269  -2.6136  -2.5816  -2.5502  -2.5384
    -2.4889  -2.4866  -2.4623  -2.4309  -2.4145  -2.3940  -2.3835  -2.3599
    -2.3530  -2.3015  -2.2886  -2.2396  -2.2111  -2.1700  -2.1678  -2.1495
    -2.1314  -2.0923  -2.0718  -2.0500  -2.0388  -2.0106  -1.9716  -1.9532
    -1.9044  -1.8833  -1.8600  -1.8442  -1.8343  -1.7866  -1.7597  -1.7524
    -1.7320  -1.6915  -1.6765  -1.6513  -1.6002  -1.5861  -1.5607  -1.5284
    -1.5246  -1.5064  -1.4832  -1.4691  -1.4674  -1.4436  -1.4277  -1.3980
    -1.3908  -1.3625  -1.3374  -1.3321  -1.2975  -1.2655  -1.2371  -1.2191
    -1.2037  -1.1792  -1.1565  -1.1371  -1.1093  -1.0821  -1.0504  -1.0166
    -0.9918  -0.9376  -0.9145  -0.9055  -0.8784  -0.8370  -0.8250  -0.8146
    -0.7881  -0.7590  -0.7303  -0.6517  -0.3857  -0.3075  -0.2616  -0.1789
     0.0341   0.0457   0.0752   0.0824   0.0906   0.1230   0.1343   0.1513
     0.1813   0.1924   0.2029   0.2173   0.2367   0.2459   0.2587   0.2663
     0.3046   0.3111   0.3244   0.3381   0.3445   0.3667   0.3898   0.4217
     0.4369   0.4730   0.4974   0.5125   0.5184   0.5493   0.5679   0.5773
     0.5848   0.6111   0.6391   0.6464   0.6624   0.7082   0.7296   0.7572
     0.7877   0.7989   0.8141   0.8325   0.8654   0.8681   0.9133   0.9247
     0.9502   0.9572   0.9692   0.9893   0.9953   1.0148   1.0549   1.0667
     1.3588   1.4543   1.4646   1.5277   1.5474   1.5677   1.5986   1.6474
     1.6832   1.7100   1.7254   1.7627   1.7820   1.7943   1.8226   1.8333
     1.8972   1.9143   1.9352   1.9536   1.9672   1.9776   2.0233   2.0488
     2.0587   2.0854   2.1098   2.1695   2.8392   2.8994   2.9405   2.9509
     2.9777   3.0126   3.0219   3.0584   3.0755   3.0826   3.0985   3.1068
     3.1245   3.1551   3.1662   3.1921   3.2835   3.3026   3.3142   3.3369
     3.3654   3.3699   3.3942   3.4168   3.4215   3.4372   3.4458   3.4666
     3.5053   3.5156   3.5271   3.5390   3.5510   3.5816   3.6018   3.6088
     3.6306   3.6472   3.6532   3.6589   3.6895   3.6987   3.7055   3.7114
     3.7268   3.7492   3.7635   3.7736   3.7830   3.7937   3.8033   3.8247
     3.8399   3.8594   3.8765   3.9039   3.9139   3.9316   3.9444   3.9588
     3.9788   3.9876   4.0141   4.0403   4.1897   4.2420   4.2669   4.3081
     4.3213   4.3433   4.3657   4.3718   4.3820   4.4050   4.4400   4.4681
     4.4948   4.5042   4.5138   4.5263   4.5461   4.5515   4.5688   4.5701
     4.5776   4.5988   4.6052   4.6166   4.6230   4.6495   4.6675   4.6766
     4.6898   4.7032   4.7169   4.7459   4.7583   4.7661   4.7794   4.7864
     4.8124   4.8216   4.8339   4.8634   4.8828   4.8893   4.9103   4.9135
     4.9372   4.9424   4.9635   4.9792   4.9880   5.0008   5.0300   5.0407
     5.0430   5.0674   5.0901   5.0919   5.1066   5.1200   5.1354   5.1533
     5.1625   5.1673   5.1853   5.2082   5.2233   5.2353   5.2444   5.2550
     5.2743   5.2933   5.2998   5.3151   5.3422   5.3501   5.3637   5.3820
     5.4003   5.4028   5.4235   5.4414   5.4565   5.4637   5.4702   5.4999
     5.5045   5.5202   5.5340   5.5453   5.5750   5.5885   5.5983   5.6114
     5.6272   5.6338   5.6659   5.6748   5.7093   5.7129   5.7285   5.7497
     5.7707   5.7807   5.7907   5.8080   5.8260   5.8441   5.8626   5.8679
     5.8782   5.9069   5.9246   5.9472   5.9568   5.9782   5.9946   6.0063
     6.0434   6.0527   6.0627   6.0852   6.1153   6.1541   6.1697   6.1952
     6.2038   6.2168   6.2421   6.2560   6.2690   6.2940   6.3223   6.3380
     6.3455   6.3536   6.3722   6.3940   6.4223   6.4398   6.4488   6.4770
     6.5145   6.5277   6.5496   6.5643   6.5711   6.5723   6.6003   6.6275
     6.6383   6.6524   6.6777   6.6891   6.7099   6.7339   6.7479   6.7646
     6.7756   6.7946   6.8128   6.8506   6.8792   6.8877   6.9204   6.9372
     6.9697   7.0136   7.0393   7.1436   7.4380   7.4855   7.5679   7.6195
     9.3626   9.3686   9.4006   9.4293   9.4830   9.5246   9.5721   9.5863
     9.6202   9.6512   9.6711   9.6901   9.7076   9.7199   9.7282   9.7461
     9.7520   9.7770   9.7868   9.8153   9.8217   9.8291   9.8339   9.8452
     9.8727   9.8762   9.8862   9.9389   9.9434   9.9657   9.9741   9.9830
    10.0236  10.0468  10.0676  10.0727  10.0780  10.0969  10.1050  10.1206
    10.1475  10.1512  10.1692  10.1751  10.1940  10.1988  10.2058  10.2216
    10.2325  10.2433  10.2529  10.2685  10.2801  10.2946  10.2979  10.3216
    10.3321  10.3446  10.3559  10.3648  10.3890  10.3990  10.4191  10.4341
    10.4394  10.4537  10.4587  10.4739  10.4835  10.4934  10.5039  10.5196
    10.5303  10.5427  10.5517  10.5646  10.5802  10.5900  10.5943  10.6065
    10.6099  10.6264  10.6431  10.6568  10.6790  10.6821  10.6975  10.7045
    10.7170  10.7333  10.7392  10.7456  10.7750  10.7952  10.8045  10.8214
    10.8368  10.8406  10.8483  10.8606  10.8707  10.8868  10.8993  10.9132
    10.9248  10.9499  10.9687  10.9959  11.2563  11.2738  11.3191  11.3613
    11.4480  11.5049  11.5220  11.5513  11.5563  11.5716  11.5890  11.5985
    11.6135  11.6189  11.6644  11.6679  11.6789  11.6915  11.7075  11.7293
    11.7396  11.7466  11.7664  11.7781  11.8044  11.8119  11.8206  11.8330
    11.8356  11.8542  11.8638  11.8712  11.8939  11.9033  11.9054  11.9206
    11.9239  11.9384  11.9542  11.9788  11.9899  11.9975  12.0158  12.0302
    12.1515  12.1742  12.1880  12.1997  12.2067  12.2110  12.2268  12.2388
    12.2419  12.2504  12.2693  12.2715  12.2751  12.2942  12.3090  12.3299
    12.3771  12.4035  12.4071  12.4252  12.4389  12.4531  12.4709  12.4797
    12.4839  12.4972  12.5225  12.5255  12.5347  12.5406  12.5484  12.5619
    12.5661  12.5674  12.5894  12.5899  12.6005  12.6059  12.6095  12.6151
    12.6280  12.6322  12.6432  12.6520  12.6654  12.6708  12.6736  12.6819
    12.7006  12.7067  12.7205  12.7297  12.7352  12.7400  12.7516  12.7652
    12.7663  12.7886  12.7915  12.7940  12.8020  12.8058  12.8226  12.8280
    12.8340  12.8543  12.8610  12.8776  12.9168  12.9199  12.9458  12.9853
    12.9929  13.0138  13.0260  13.0626  13.1283  13.1504  13.1539  13.1746
    13.1832  13.1984  13.2016  13.2256  13.2447  13.2534  13.2587  13.2666
    13.2710  13.2930  13.3021  13.3133  13.3251  13.3412  13.3486  13.3630
    13.3726  13.3742  13.3977  13.4013  13.4045  13.4289  13.4380  13.4472
    13.4582  13.4719  13.4786  13.4838  13.4918  13.5025  13.5050  13.5221
    13.5225  13.5386  13.5498  13.5687  13.5703  13.5810  13.5969  13.6172
    13.6284  13.6456  13.6553  13.6611  13.6781  13.6986  13.7082  13.7203
    13.7319  13.7557  13.7817  13.8024  13.8653  13.8758  13.8909  13.8924
    13.9115  13.9264  13.9406  13.9512  13.9554  13.9738  13.9824  13.9990
    14.0032  14.0118  14.0162  14.0292  14.0411  14.0479  14.0507  14.0665
    14.0700  14.0763  14.0869  14.0970  14.1006  14.1073  14.1140  14.1329
    14.1428  14.1483  14.1576  14.1666  14.1731  14.1896  14.1945  14.2052
    14.2179  14.2308  14.2385  14.2498  14.2573  14.2621  14.2749  14.2880
    14.2938  14.3088  14.3154  14.3185  14.3296  14.3398  14.3440  14.3557
    14.3628  14.3760  14.3842  14.3980  14.4050  14.4153  14.4274  14.4324
    14.4461  14.4537  14.4636  14.4804  14.4878  14.5094  14.5462  14.5655
    14.6839  14.6977  14.7180  14.7413  14.7599  14.7617  14.7710  14.7953
    14.9244  14.9403  14.9457  15.0071  15.0203  15.0551  15.0638  15.0995
    15.1747  15.1911  15.2263  15.2545  15.2561  15.2791  15.2911  15.2977
    15.3077  15.3153  15.3295  15.3574  15.3687  15.3794  15.3900  15.4192
    15.4557  15.4966  15.5157  15.5719  15.6113  15.6282  15.6444  15.6498
    15.6650  15.6811  15.6828  15.7064  15.7129  15.7220  15.7404  15.7454
    15.7677  15.7837  15.7891  15.8031  15.8117  15.8220  15.8261  15.8341
    15.8605  15.8820  15.8851  15.9063  15.9293  15.9322  15.9394  15.9579
    15.9656  15.9689  15.9831  15.9927  16.0133  16.0290  16.0373  16.0487
    16.0745  16.1180  16.1385  16.1436  16.1750  16.1784  16.2060  16.2229
    16.2260  16.2342  16.2519  16.2681  16.2794  16.2943  16.3201  16.3388
    16.3794  16.3951  16.4196  16.4324  16.4804  16.4910  16.5072  16.5193
    16.5209  16.5421  16.5577  16.5689  16.5733  16.5860  16.5958  16.5988
    16.6060  16.6284  16.6335  16.6395  16.6514  16.6657  16.6719  16.6878
    16.6974  16.7124  16.7353  16.7563  16.8013  16.8233  16.8409  16.8548
    16.8618  16.8694  16.8940  16.9040  16.9144  16.9241  16.9269  16.9343
    16.9494  16.9574  16.9601  16.9742  16.9786  16.9895  17.0046  17.0129
    17.0186  17.0319  17.0382  17.0550  17.0567  17.0758  17.0916  17.0998
    17.1035  17.1138  17.1274  17.1312  17.1351  17.1514  17.1596  17.1700
    17.1729  17.1901  17.1963  17.2023  17.2177  17.2187  17.2413  17.2468
    17.2507  17.2776  17.2804  17.2876  17.3081  17.3187  17.3483  17.3509
    17.3691  17.3852  17.3921  17.4090  17.4270  17.4333  17.4397  17.4462
    17.4582  17.4735  17.4795  17.4838  17.4879  17.4960  17.5020  17.5107
    17.5243  17.5285  17.5362  17.5396  17.5555  17.5648  17.5768  17.5809
    17.5946  17.5949  17.6031  17.6170  17.6189  17.6315  17.6422  17.6492
    17.6554  17.6603  17.6770  17.6908  17.6996  17.7057  17.7256  17.7313
    17.7512  17.7784  17.7864  17.7950  17.9081  17.9333  17.9415  17.9552
    18.0042  18.0173  18.0384  18.0537  18.0638  18.0767  18.0874  18.0880
    18.1056  18.1134  18.1186  18.1293  18.1389  18.1517  18.1589  18.1642
    18.1757  18.1800  18.1936  18.1981  18.2095  18.2246  18.2357  18.2526
    18.2556  18.2726  18.2847  18.3002  18.3199  18.3300  18.3478  18.3714
    18.4256  18.4479  18.4659  18.4750  18.4933  18.5115  18.5136  18.5354
    18.5472  18.5492  18.5580  18.5785  18.5901  18.6019  18.6240  18.6352
    18.6495  18.6551  18.6771  18.6937  18.7106  18.7342  18.7475  18.7633
    18.8012  18.8032  18.8338  18.8506  18.8673  18.8914  18.8956  18.9041
    18.9238  18.9379  18.9456  18.9661  18.9855  18.9948  19.0027  19.0214
    19.0263  19.0276  19.0448  19.0589  19.0642  19.0913  19.0952  19.1085

     highest occupied, lowest unoccupied level (ev):     7.6626    8.5361

!    total energy              =  -37799.95847258 Ry
     estimated scf accuracy    <       0.00000339 Ry

     The total energy is the sum of the following terms:
     one-electron contribution =  -19637.47863278 Ry
     hartree contribution      =   11817.35264755 Ry
     xc contribution           =   -9549.36385273 Ry
     ewald contribution        =  -20428.72339101 Ry
     Hubbard energy            =      -1.74524361 Ry

     convergence has been achieved in  12 iterations

     Writing all to output data dir ./tmp_In0.0Ga1.0As0.5Sb0.5_cube_3x3x3.4/In0.0Ga1.0As0.5Sb0.5_cube_3x3x3.4.save/ :
     XML data file, charge density, pseudopotentials, collected wavefunctions

     init_run     :    289.52s CPU    292.26s WALL (       1 calls)
     electrons    :  10880.68s CPU  10911.34s WALL (       1 calls)

     Called by init_run:
     wfcinit      :    281.45s CPU    283.97s WALL (       1 calls)
     potinit      :      0.45s CPU      0.52s WALL (       1 calls)
     hinit0       :      1.74s CPU      1.77s WALL (       1 calls)

     Called by electrons:
     c_bands      :  10469.64s CPU  10498.78s WALL (      13 calls)
     sum_band     :    405.09s CPU    405.82s WALL (      13 calls)
     v_of_rho     :      4.52s CPU      4.74s WALL (      13 calls)
     mix_rho      :      0.62s CPU      0.63s WALL (      13 calls)

     Called by c_bands:
     init_us_2    :     41.11s CPU     41.76s WALL (      28 calls)
     cegterg      :  10125.50s CPU  10153.20s WALL (      13 calls)

     Called by *egterg:
     cdiaghg      :    752.05s CPU    752.98s WALL (     104 calls)
     h_psi        :   6162.29s CPU   6180.25s WALL (     106 calls)
     g_psi        :      4.67s CPU      4.67s WALL (      92 calls)

     Called by h_psi:
     h_psi:calbec :   1053.37s CPU   1053.46s WALL (     106 calls)
     vloc_psi     :   1091.23s CPU   1093.39s WALL (     106 calls)
     add_vuspsi   :   1066.35s CPU   1068.81s WALL (     106 calls)
     vhpsi        :   2943.15s CPU   2943.47s WALL (     106 calls)

     General routines
     calbec       :   1355.28s CPU   1355.40s WALL (     226 calls)
     fft          :      3.83s CPU      4.04s WALL (     131 calls)
     ffts         :      0.26s CPU      0.26s WALL (      13 calls)
     fftw         :   1118.11s CPU   1120.37s WALL (  161482 calls)

     Parallel routines

     Hubbard U routines
     new_ns       :     73.75s CPU     73.77s WALL (      13 calls)
     vhpsi        :   2943.15s CPU   2943.47s WALL (     106 calls)

     PWSCF        :      3h 6m CPU      3h 8m WALL


   This run was terminated on:   6:13:31  16May2025            

=------------------------------------------------------------------------------=
   JOB DONE.
=------------------------------------------------------------------------------=
