
     Program PWSCF v.7.3.1 starts on 25Mar2026 at 14:44:24 

     This program is part of the open-source Quantum ESPRESSO suite
     for quantum simulation of materials; please cite
         "P. Giannozzi et al., J. Phys.:Condens. Matter 21 395502 (2009);
         "P. Giannozzi et al., J. Phys.:Condens. Matter 29 465901 (2017);
         "P. Giannozzi et al., J. Chem. Phys. 152 154105 (2020);
          URL http://www.quantum-espresso.org", 
     in publications or presentations arising from this work. More details at
     http://www.quantum-espresso.org/quote

     Parallel version (MPI), running on   640 processors

     MPI processes distributed on     5 nodes
     480777 MiB available memory on the printing compute node when the environment starts

     Reading input from In1.0Ga0.0As0.25Sb0.75_cube_3x3x3.3.scf.in
Warning: card &CELL ignored
Warning: card   CELL_DOFREE = 'ALL', ignored
Warning: card / ignored

     Current dimensions of program PWSCF are:
     Max number of different atomic species (ntypx) = 10
     Max number of k-points (npk) =  40000
     Max angular momentum in pseudopotentials (lmaxx) =  4

     K-points division:     npool     =       5
     R & G space division:  proc/nbgrp/npool/nimage =     128
     Subspace diagonalization in iterative solution of the eigenvalue problem:
     one sub-group per band group will be used
     custom distributed-memory algorithm (size of sub-group: 11* 11 procs)


     Parallelization info
     --------------------
     sticks:   dense  smooth     PW     G-vecs:    dense   smooth      PW
     Min         394     394    101                66818    66818    8701
     Max         395     395    102                66831    66831    8708
     Sum       50557   50557  12989              8553657  8553657 1114005

     Using Slab Decomposition



     bravais-lattice index     =            1
     lattice parameter (alat)  =      36.3854  a.u.
     unit-cell volume          =   48170.4801 (a.u.)^3
     number of atoms/cell      =          216
     number of atomic types    =            4
     number of electrons       =      3024.00
     number of Kohn-Sham states=         2160
     kinetic-energy cutoff     =     120.0000  Ry
     charge density cutoff     =     480.0000  Ry
     scf convergence threshold =      1.0E-05
     mixing beta               =       0.6500
     number of iterations used =            8  plain     mixing
     Exchange-correlation= PBE
                           (   1   4   3   4   0   0   0)
     Hubbard projectors: atomic
     Hubbard parameters of DFT+U (Dudarev formulation) in eV:
     U(As-4p) =  3.2600
     U(Ga-4p) = -2.3350
     U(In-5p) = -1.0575
     U(Sb-5p) =  3.1600

     Internal variables: lda_plus_u =T, lda_plus_u_kind = 0

     celldm(1)=  36.385386  celldm(2)=   0.000000  celldm(3)=   0.000000
     celldm(4)=   0.000000  celldm(5)=   0.000000  celldm(6)=   0.000000

     crystal axes: (cart. coord. in units of alat)
               a(1) = (   1.000000   0.000000   0.000000 )  
               a(2) = (   0.000000   1.000000   0.000000 )  
               a(3) = (   0.000000   0.000000   1.000000 )  

     reciprocal axes: (cart. coord. in units 2 pi/alat)
               b(1) = (  1.000000  0.000000  0.000000 )  
               b(2) = (  0.000000  1.000000  0.000000 )  
               b(3) = (  0.000000  0.000000  1.000000 )  


     PseudoPot. # 1 for As read from file:
     /work/i254/i254/gentles/data/pseudos/As.pbe.NC-SR.standard.v0.5.UPF
     MD5 check sum: bfe1a874457ce592347346129958e7cf
     Pseudo is Norm-conserving + core correction, Zval = 15.0
     Generated using ONCVPSP code by D. R. Hamann
     Using radial grid of 1358 points,  6 beta functions with: 
                l(1) =   0
                l(2) =   0
                l(3) =   1
                l(4) =   1
                l(5) =   2
                l(6) =   2

     PseudoPot. # 2 for Ga read from file:
     /work/i254/i254/gentles/data/pseudos/Ga.pbe.NC-SR.standard.v0.5.UPF
     MD5 check sum: 2bb81bf6f0a8d9832cf3329850435ecf
     Pseudo is Norm-conserving + core correction, Zval = 13.0
     Generated using ONCVPSP code by D. R. Hamann
     Using radial grid of 1902 points,  6 beta functions with: 
                l(1) =   0
                l(2) =   0
                l(3) =   1
                l(4) =   1
                l(5) =   2
                l(6) =   2

     PseudoPot. # 3 for In read from file:
     /work/i254/i254/gentles/data/pseudos/In.pbe.NC-SR.standard.v0.5.UPF
     MD5 check sum: 835f4bf908c982ff75c88e16816a8d7f
     Pseudo is Norm-conserving + core correction, Zval = 13.0
     Generated using ONCVPSP code by D. R. Hamann
     Using radial grid of 1964 points,  6 beta functions with: 
                l(1) =   0
                l(2) =   0
                l(3) =   1
                l(4) =   1
                l(5) =   2
                l(6) =   2

     PseudoPot. # 4 for Sb read from file:
     /work/i254/i254/gentles/data/pseudos/Sb.pbe.NC-SR.standard.v0.5.UPF
     MD5 check sum: 127f69b6101c45666faeae1b5d611565
     Pseudo is Norm-conserving + core correction, Zval = 15.0
     Generated using ONCVPSP code by D. R. Hamann
     Using radial grid of 1434 points,  6 beta functions with: 
                l(1) =   0
                l(2) =   0
                l(3) =   1
                l(4) =   1
                l(5) =   2
                l(6) =   2

     atomic species   valence    mass     pseudopotential
     As               15.00    74.92160     As( 1.00)
     Ga               13.00    69.72300     Ga( 1.00)
     In               13.00   114.81800     In( 1.00)
     Sb               15.00   121.76000     Sb( 1.00)

     No symmetry found



   Cartesian axes

     site n.     atom                  positions (alat units)
         1        In     tau(   1) = (   0.0030160   0.0017180   0.0005650  )
         2        In     tau(   2) = (   0.0007780   0.1656830   0.1650550  )
         3        In     tau(   3) = (   0.1726850  -0.0028050   0.1700100  )
         4        In     tau(   4) = (   0.1707300   0.1694260  -0.0055930  )
         5        Sb     tau(   5) = (   0.0903080   0.0840290   0.0832210  )
         6        Sb     tau(   6) = (   0.0852840   0.2501050   0.2477530  )
         7        As     tau(   7) = (   0.2502440   0.0830180   0.2491600  )
         8        As     tau(   8) = (   0.2488170   0.2486090   0.0781330  )
         9        In     tau(   9) = (   0.0061700  -0.0030540   0.3290380  )
        10        In     tau(  10) = (   0.0084470   0.1735950   0.5051160  )
        11        In     tau(  11) = (   0.1663250   0.0010310   0.5025380  )
        12        In     tau(  12) = (   0.1709440   0.1637930   0.3294320  )
        13        Sb     tau(  13) = (   0.0849440   0.0846360   0.4162850  )
        14        As     tau(  14) = (   0.0878390   0.2546780   0.5863750  )
        15        Sb     tau(  15) = (   0.2501080   0.0856940   0.5859030  )
        16        Sb     tau(  16) = (   0.2505200   0.2487690   0.4192590  )
        17        In     tau(  17) = (  -0.0001730  -0.0031630   0.6721910  )
        18        In     tau(  18) = (   0.0084360   0.1712920   0.8384870  )
        19        In     tau(  19) = (   0.1744830   0.0011580   0.8325990  )
        20        In     tau(  20) = (   0.1674870   0.1756840   0.6670480  )
        21        Sb     tau(  21) = (   0.0873950   0.0852380   0.7506320  )
        22        As     tau(  22) = (   0.0903150   0.2514030   0.9157670  )
        23        As     tau(  23) = (   0.2485290   0.0851530   0.9146830  )
        24        As     tau(  24) = (   0.2460340   0.2523800   0.7517650  )
        25        In     tau(  25) = (   0.0074000   0.3287470  -0.0046600  )
        26        In     tau(  26) = (   0.0024400   0.4985250   0.1721980  )
        27        In     tau(  27) = (   0.1708960   0.3288990   0.1591790  )
        28        In     tau(  28) = (   0.1677110   0.4993090  -0.0085070  )
        29        Sb     tau(  29) = (   0.0857260   0.4173180   0.0811110  )
        30        As     tau(  30) = (   0.0826370   0.5808070   0.2505260  )
        31        Sb     tau(  31) = (   0.2476420   0.4165270   0.2484860  )
        32        Sb     tau(  32) = (   0.2493260   0.5832820   0.0803320  )
        33        In     tau(  33) = (  -0.0015960   0.3365030   0.3286840  )
        34        In     tau(  34) = (   0.0026350   0.5007640   0.5009350  )
        35        In     tau(  35) = (   0.1686760   0.3342030   0.5070760  )
        36        In     tau(  36) = (   0.1635630   0.5032450   0.3316580  )
        37        Sb     tau(  37) = (   0.0846210   0.4154470   0.4169020  )
        38        Sb     tau(  38) = (   0.0890810   0.5817610   0.5863020  )
        39        As     tau(  39) = (   0.2487230   0.4149360   0.5882230  )
        40        Sb     tau(  40) = (   0.2501030   0.5825310   0.4205480  )
        41        In     tau(  41) = (   0.0110680   0.3354330   0.6690740  )
        42        In     tau(  42) = (   0.0100820   0.4979560   0.8318010  )
        43        In     tau(  43) = (   0.1673760   0.3334760   0.8331510  )
        44        In     tau(  44) = (   0.1712630   0.4948450   0.6723290  )
        45        As     tau(  45) = (   0.0895280   0.4152970   0.7520010  )
        46        As     tau(  46) = (   0.0875820   0.5797130   0.9127160  )
        47        As     tau(  47) = (   0.2457430   0.4153120   0.9139280  )
        48        As     tau(  48) = (   0.2492270   0.5797760   0.7496710  )
        49        In     tau(  49) = (   0.0075910   0.6605790  -0.0062380  )
        50        In     tau(  50) = (   0.0063880   0.8372850   0.1695290  )
        51        In     tau(  51) = (   0.1622350   0.6598800   0.1693390  )
        52        In     tau(  52) = (   0.1701600   0.8359950   0.0039630  )
        53        Sb     tau(  53) = (   0.0845920   0.7481940   0.0834830  )
        54        As     tau(  54) = (   0.0875030   0.9189310   0.2477570  )
        55        Sb     tau(  55) = (   0.2478640   0.7502270   0.2462510  )
        56        As     tau(  56) = (   0.2492910   0.9185400   0.0830380  )
        57        In     tau(  57) = (   0.0053860   0.6629250   0.3307820  )
        58        In     tau(  58) = (   0.0012970   0.8322320   0.4991960  )
        59        In     tau(  59) = (   0.1718510   0.6718730   0.5055310  )
        60        In     tau(  60) = (   0.1652300   0.8387000   0.3284570  )
        61        Sb     tau(  61) = (   0.0872400   0.7500930   0.4152420  )
        62        Sb     tau(  62) = (   0.0854340   0.9140410   0.5867400  )
        63        As     tau(  63) = (   0.2520770   0.7490800   0.5874430  )
        64        Sb     tau(  64) = (   0.2503710   0.9180990   0.4168600  )
        65        In     tau(  65) = (   0.0026080   0.6663530   0.6668700  )
        66        In     tau(  66) = (   0.0005660   0.8372600   0.8295510  )
        67        In     tau(  67) = (   0.1684920   0.6583140   0.8328680  )
        68        In     tau(  68) = (   0.1757920   0.8324480   0.6686700  )
        69        Sb     tau(  69) = (   0.0877760   0.7495050   0.7508870  )
        70        Sb     tau(  70) = (   0.0869210   0.9181950   0.9157600  )
        71        Sb     tau(  71) = (   0.2493150   0.7494790   0.9161270  )
        72        As     tau(  72) = (   0.2502710   0.9170350   0.7505690  )
        73        In     tau(  73) = (   0.3230760   0.0022760  -0.0013420  )
        74        In     tau(  74) = (   0.3230430   0.1674130   0.1647410  )
        75        In     tau(  75) = (   0.4977220   0.0005450   0.1652850  )
        76        In     tau(  76) = (   0.4953490   0.1689130  -0.0007920  )
        77        Sb     tau(  77) = (   0.4104460   0.0841770   0.0826700  )
        78        Sb     tau(  78) = (   0.4109990   0.2474270   0.2508640  )
        79        Sb     tau(  79) = (   0.5825350   0.0826540   0.2509690  )
        80        Sb     tau(  80) = (   0.5828190   0.2524580   0.0823280  )
        81        In     tau(  81) = (   0.3328560   0.0072140   0.3333280  )
        82        In     tau(  82) = (   0.3379330   0.1619950   0.4976480  )
        83        In     tau(  83) = (   0.4972810   0.0077260   0.5001240  )
        84        In     tau(  84) = (   0.4942670   0.1624160   0.3367150  )
        85        As     tau(  85) = (   0.4156080   0.0825920   0.4163750  )
        86        Sb     tau(  86) = (   0.4148970   0.2490900   0.5860090  )
        87        As     tau(  87) = (   0.5787070   0.0847870   0.5835770  )
        88        Sb     tau(  88) = (   0.5799810   0.2479020   0.4186890  )
        89        In     tau(  89) = (   0.3289820  -0.0027660   0.6711110  )
        90        In     tau(  90) = (   0.3239090   0.1675390   0.8314280  )
        91        In     tau(  91) = (   0.4959600  -0.0000220   0.8351580  )
        92        In     tau(  92) = (   0.5039400   0.1667440   0.6676340  )
        93        Sb     tau(  93) = (   0.4137980   0.0850990   0.7505270  )
        94        Sb     tau(  94) = (   0.4104440   0.2515210   0.9136420  )
        95        Sb     tau(  95) = (   0.5813520   0.0857580   0.9156730  )
        96        As     tau(  96) = (   0.5812970   0.2489330   0.7484710  )
        97        In     tau(  97) = (   0.3235640   0.3345060  -0.0025170  )
        98        In     tau(  98) = (   0.3327260   0.5003710   0.1662550  )
        99        In     tau(  99) = (   0.4963540   0.3320950   0.1679830  )
       100        In     tau( 100) = (   0.4970670   0.4975670  -0.0026660  )
       101        Sb     tau( 101) = (   0.4124550   0.4142220   0.0815000  )
       102        Sb     tau( 102) = (   0.4169950   0.5854800   0.2494490  )
       103        Sb     tau( 103) = (   0.5826290   0.4169900   0.2503050  )
       104        Sb     tau( 104) = (   0.5806360   0.5823960   0.0824470  )
       105        In     tau( 105) = (   0.3316730   0.3359030   0.3355710  )
       106        In     tau( 106) = (   0.3308890   0.4974800   0.5104660  )
       107        In     tau( 107) = (   0.4977240   0.3347210   0.5023990  )
       108        In     tau( 108) = (   0.5028370   0.5048380   0.3366270  )
       109        Sb     tau( 109) = (   0.4155660   0.4205600   0.4192830  )
       110        As     tau( 110) = (   0.4121600   0.5819700   0.5854730  )
       111        Sb     tau( 111) = (   0.5808650   0.4202230   0.5855780  )
       112        As     tau( 112) = (   0.5805730   0.5825980   0.4193920  )
       113        In     tau( 113) = (   0.3252950   0.3316580   0.6688100  )
       114        In     tau( 114) = (   0.3245090   0.4982390   0.8341020  )
       115        In     tau( 115) = (   0.5004820   0.3290440   0.8280740  )
       116        In     tau( 116) = (   0.4955230   0.5072530   0.6674170  )
       117        Sb     tau( 117) = (   0.4131560   0.4174070   0.7495360  )
       118        Sb     tau( 118) = (   0.4129400   0.5828440   0.9151010  )
       119        Sb     tau( 119) = (   0.5832870   0.4148790   0.9141430  )
       120        As     tau( 120) = (   0.5799600   0.5834140   0.7481800  )
       121        In     tau( 121) = (   0.3367940   0.6718630   0.0029440  )
       122        In     tau( 122) = (   0.3310620   0.8343380   0.1582740  )
       123        In     tau( 123) = (   0.4957220   0.6721300   0.1626190  )
       124        In     tau( 124) = (   0.4937190   0.8296270   0.0025890  )
       125        As     tau( 125) = (   0.4144950   0.7519360   0.0836130  )
       126        Sb     tau( 126) = (   0.4124570   0.9171050   0.2490430  )
       127        Sb     tau( 127) = (   0.5819270   0.7505280   0.2512510  )
       128        Sb     tau( 128) = (   0.5822010   0.9149860   0.0828110  )
       129        In     tau( 129) = (   0.3312240   0.6672600   0.3334750  )
       130        In     tau( 130) = (   0.3292460   0.8290140   0.5042400  )
       131        In     tau( 131) = (   0.4959740   0.6569160   0.5017680  )
       132        In     tau( 132) = (   0.4970430   0.8344660   0.3357530  )
       133        Sb     tau( 133) = (   0.4155220   0.7473190   0.4199510  )
       134        Sb     tau( 134) = (   0.4138680   0.9187320   0.5824240  )
       135        Sb     tau( 135) = (   0.5805170   0.7449810   0.5832610  )
       136        Sb     tau( 136) = (   0.5822030   0.9194270   0.4186720  )
       137        In     tau( 137) = (   0.3282670   0.6607700   0.6645690  )
       138        In     tau( 138) = (   0.3285960   0.8350450   0.8286930  )
       139        In     tau( 139) = (   0.5000980   0.6623090   0.8283410  )
       140        In     tau( 140) = (   0.4972220   0.8322980   0.6646990  )
       141        Sb     tau( 141) = (   0.4125060   0.7471340   0.7471850  )
       142        Sb     tau( 142) = (   0.4103570   0.9161590   0.9183620  )
       143        Sb     tau( 143) = (   0.5795360   0.7491500   0.9153230  )
       144        Sb     tau( 144) = (   0.5807010   0.9179190   0.7485960  )
       145        In     tau( 145) = (   0.6660070   0.0000970  -0.0018330  )
       146        In     tau( 146) = (   0.6660860   0.1685010   0.1672770  )
       147        In     tau( 147) = (   0.8297800  -0.0042280   0.1705440  )
       148        In     tau( 148) = (   0.8327580   0.1656560  -0.0002110  )
       149        Sb     tau( 149) = (   0.7490640   0.0818380   0.0849530  )
       150        Sb     tau( 150) = (   0.7539750   0.2526850   0.2485600  )
       151        Sb     tau( 151) = (   0.9174800   0.0809800   0.2497980  )
       152        Sb     tau( 152) = (   0.9179700   0.2518060   0.0813830  )
       153        In     tau( 153) = (   0.6700170  -0.0045600   0.3296960  )
       154        In     tau( 154) = (   0.6613090   0.1618020   0.5040530  )
       155        In     tau( 155) = (   0.8366220   0.0017010   0.4990800  )
       156        In     tau( 156) = (   0.8356380   0.1669200   0.3348900  )
       157        Sb     tau( 157) = (   0.7486120   0.0828350   0.4165190  )
       158        Sb     tau( 158) = (   0.7471320   0.2485380   0.5852130  )
       159        Sb     tau( 159) = (   0.9220010   0.0846070   0.5843690  )
       160        Sb     tau( 160) = (   0.9195010   0.2519030   0.4183640  )
       161        In     tau( 161) = (   0.6607400   0.0047980   0.6616720  )
       162        In     tau( 162) = (   0.6626350   0.1718880   0.8297460  )
       163        In     tau( 163) = (   0.8376860  -0.0017530   0.8285770  )
       164        In     tau( 164) = (   0.8365120   0.1679650   0.6678630  )
       165        Sb     tau( 165) = (   0.7486000   0.0844160   0.7486810  )
       166        Sb     tau( 166) = (   0.7499020   0.2517370   0.9161300  )
       167        Sb     tau( 167) = (   0.9194010   0.0846080   0.9151970  )
       168        Sb     tau( 168) = (   0.9232640   0.2519180   0.7509360  )
       169        In     tau( 169) = (   0.6716330   0.3385380   0.0034100  )
       170        In     tau( 170) = (   0.6695150   0.4968640   0.1626720  )
       171        In     tau( 171) = (   0.8365180   0.3416130   0.1651550  )
       172        In     tau( 172) = (   0.8323880   0.4953110   0.0028620  )
       173        As     tau( 173) = (   0.7521870   0.4174080   0.0842520  )
       174        Sb     tau( 174) = (   0.7505390   0.5816760   0.2499030  )
       175        As     tau( 175) = (   0.9191310   0.4174510   0.2480980  )
       176        Sb     tau( 176) = (   0.9203090   0.5811800   0.0828150  )
       177        In     tau( 177) = (   0.6658070   0.3310110   0.3340570  )
       178        In     tau( 178) = (   0.6630720   0.5028590   0.4966880  )
       179        In     tau( 179) = (   0.8323960   0.3334890   0.5021900  )
       180        In     tau( 180) = (   0.8383490   0.4955180   0.3290470  )
       181        Sb     tau( 181) = (   0.7500860   0.4173560   0.4158770  )
       182        Sb     tau( 182) = (   0.7488010   0.5831340   0.5832640  )
       183        Sb     tau( 183) = (   0.9209550   0.4148420   0.5853350  )
       184        Sb     tau( 184) = (   0.9181500   0.5825870   0.4155540  )
       185        In     tau( 185) = (   0.6609450   0.3307770   0.6701730  )
       186        In     tau( 186) = (   0.6604240   0.5041650   0.8285340  )
       187        In     tau( 187) = (   0.8356970   0.3352320   0.8326230  )
       188        In     tau( 188) = (   0.8341110   0.4982700   0.6662060  )
       189        Sb     tau( 189) = (   0.7472950   0.4168470   0.7500590  )
       190        Sb     tau( 190) = (   0.7489490   0.5808950   0.9169540  )
       191        Sb     tau( 191) = (   0.9218360   0.4166870   0.9163710  )
       192        Sb     tau( 192) = (   0.9203030   0.5806330   0.7507840  )
       193        In     tau( 193) = (   0.6654520   0.6669340  -0.0001990  )
       194        In     tau( 194) = (   0.6694560   0.8368290   0.1713710  )
       195        In     tau( 195) = (   0.8360870   0.6672850   0.1661810  )
       196        In     tau( 196) = (   0.8369910   0.8319040   0.0006950  )
       197        Sb     tau( 197) = (   0.7498600   0.7510810   0.0844600  )
       198        As     tau( 198) = (   0.7502320   0.9158760   0.2502730  )
       199        Sb     tau( 199) = (   0.9203340   0.7514700   0.2505920  )
       200        Sb     tau( 200) = (   0.9189230   0.9176300   0.0853800  )
       201        In     tau( 201) = (   0.6604060   0.6606520   0.3368840  )
       202        In     tau( 202) = (   0.6653660   0.8321150   0.5017700  )
       203        In     tau( 203) = (   0.8328670   0.6678440   0.4992820  )
       204        In     tau( 204) = (   0.8299810   0.8352360   0.3295000  )
       205        Sb     tau( 205) = (   0.7471830   0.7494820   0.4142680  )
       206        Sb     tau( 206) = (   0.7505330   0.9186240   0.5841970  )
       207        Sb     tau( 207) = (   0.9168530   0.7509480   0.5848010  )
       208        Sb     tau( 208) = (   0.9182360   0.9161880   0.4135990  )
       209        In     tau( 209) = (   0.6629920   0.6628630   0.6708070  )
       210        In     tau( 210) = (   0.6656550   0.8342800   0.8333720  )
       211        In     tau( 211) = (   0.8352150   0.6643770   0.8344560  )
       212        In     tau( 212) = (   0.8363440   0.8375510   0.6714210  )
       213        Sb     tau( 213) = (   0.7503320   0.7488970   0.7510650  )
       214        Sb     tau( 214) = (   0.7532480   0.9166730   0.9157320  )
       215        Sb     tau( 215) = (   0.9213150   0.7489570   0.9151700  )
       216        As     tau( 216) = (   0.9183520   0.9168990   0.7506250  )

     number of k points=     8
                       cart. coord. in units 2pi/alat
        k(    1) = (   0.0000000   0.0000000   0.0000000), wk =   0.2500000
        k(    2) = (   0.0000000   0.0000000  -0.5000000), wk =   0.2500000
        k(    3) = (   0.0000000  -0.5000000  -0.5000000), wk =   0.2500000
        k(    4) = (  -0.5000000  -0.5000000  -0.5000000), wk =   0.2500000
        k(    5) = (  -0.5000000   0.0000000   0.0000000), wk =   0.2500000
        k(    6) = (   0.0000000  -0.5000000   0.0000000), wk =   0.2500000
        k(    7) = (  -0.5000000   0.0000000   0.5000000), wk =   0.2500000
        k(    8) = (  -0.5000000   0.5000000   0.0000000), wk =   0.2500000

     Dense  grid:  8553657 G-vectors     FFT dimensions: ( 256, 256, 256)

     Estimated max dynamical RAM per process >       2.79 GB

     Estimated total dynamical RAM >    1776.58 GB

     Initial potential from superposition of free atoms

     starting charge    3023.5275, renormalised to    3024.0000

     STARTING HUBBARD OCCUPATIONS:

     =================== HUBBARD OCCUPATIONS ===================
     ------------------------ ATOM    1 ------------------------
     Tr[ns(  1)] =   1.00000
     eigenvalues:
       0.167  0.167  0.167
     eigenvectors (columns):
       1.000  0.000  0.000
       0.000  1.000  0.000
       0.000  0.000  1.000
     occupation matrix ns (before diag.):
       0.167  0.000  0.000
       0.000  0.167  0.000
       0.000  0.000  0.167
     ------------------------ ATOM    2 ------------------------
     Tr[ns(  2)] =   1.00000
     eigenvalues:
       0.167  0.167  0.167
     eigenvectors (columns):
       1.000  0.000  0.000
       0.000  1.000  0.000
       0.000  0.000  1.000
     occupation matrix ns (before diag.):
       0.167  0.000  0.000
       0.000  0.167  0.000
       0.000  0.000  0.167
     ------------------------ ATOM    3 ------------------------
     Tr[ns(  3)] =   1.00000
     eigenvalues:
       0.167  0.167  0.167
     eigenvectors (columns):
       1.000  0.000  0.000
       0.000  1.000  0.000
       0.000  0.000  1.000
     occupation matrix ns (before diag.):
       0.167  0.000  0.000
       0.000  0.167  0.000
       0.000  0.000  0.167
     ------------------------ ATOM    4 ------------------------
     Tr[ns(  4)] =   1.00000
     eigenvalues:
       0.167  0.167  0.167
     eigenvectors (columns):
       1.000  0.000  0.000
       0.000  1.000  0.000
       0.000  0.000  1.000
     occupation matrix ns (before diag.):
       0.167  0.000  0.000
       0.000  0.167  0.000
       0.000  0.000  0.167
     ------------------------ ATOM    5 ------------------------
     Tr[ns(  5)] =   3.00000
     eigenvalues:
       0.500  0.500  0.500
     eigenvectors (columns):
       1.000  0.000  0.000
       0.000  1.000  0.000
       0.000  0.000  1.000
     occupation matrix ns (before diag.):
       0.500  0.000  0.000
       0.000  0.500  0.000
       0.000  0.000  0.500
     ------------------------ ATOM    6 ------------------------
     Tr[ns(  6)] =   3.00000
     eigenvalues:
       0.500  0.500  0.500
     eigenvectors (columns):
       1.000  0.000  0.000
       0.000  1.000  0.000
       0.000  0.000  1.000
     occupation matrix ns (before diag.):
       0.500  0.000  0.000
       0.000  0.500  0.000
       0.000  0.000  0.500
     ------------------------ ATOM    7 ------------------------
     Tr[ns(  7)] =   3.00000
     eigenvalues:
       0.500  0.500  0.500
     eigenvectors (columns):
       1.000  0.000  0.000
       0.000  1.000  0.000
       0.000  0.000  1.000
     occupation matrix ns (before diag.):
       0.500  0.000  0.000
       0.000  0.500  0.000
       0.000  0.000  0.500
     ------------------------ ATOM    8 ------------------------
     Tr[ns(  8)] =   3.00000
     eigenvalues:
       0.500  0.500  0.500
     eigenvectors (columns):
       1.000  0.000  0.000
       0.000  1.000  0.000
       0.000  0.000  1.000
     occupation matrix ns (before diag.):
       0.500  0.000  0.000
       0.000  0.500  0.000
       0.000  0.000  0.500
     ------------------------ ATOM    9 ------------------------
     Tr[ns(  9)] =   1.00000
     eigenvalues:
       0.167  0.167  0.167
     eigenvectors (columns):
       1.000  0.000  0.000
       0.000  1.000  0.000
       0.000  0.000  1.000
     occupation matrix ns (before diag.):
       0.167  0.000  0.000
       0.000  0.167  0.000
       0.000  0.000  0.167
     ------------------------ ATOM   10 ------------------------
     Tr[ns( 10)] =   1.00000
     eigenvalues:
       0.167  0.167  0.167
     eigenvectors (columns):
       1.000  0.000  0.000
       0.000  1.000  0.000
       0.000  0.000  1.000
     occupation matrix ns (before diag.):
       0.167  0.000  0.000
       0.000  0.167  0.000
       0.000  0.000  0.167
     ------------------------ ATOM   11 ------------------------
     Tr[ns( 11)] =   1.00000
     eigenvalues:
       0.167  0.167  0.167
     eigenvectors (columns):
       1.000  0.000  0.000
       0.000  1.000  0.000
       0.000  0.000  1.000
     occupation matrix ns (before diag.):
       0.167  0.000  0.000
       0.000  0.167  0.000
       0.000  0.000  0.167
     ------------------------ ATOM   12 ------------------------
     Tr[ns( 12)] =   1.00000
     eigenvalues:
       0.167  0.167  0.167
     eigenvectors (columns):
       1.000  0.000  0.000
       0.000  1.000  0.000
       0.000  0.000  1.000
     occupation matrix ns (before diag.):
       0.167  0.000  0.000
       0.000  0.167  0.000
       0.000  0.000  0.167
     ------------------------ ATOM   13 ------------------------
     Tr[ns( 13)] =   3.00000
     eigenvalues:
       0.500  0.500  0.500
     eigenvectors (columns):
       1.000  0.000  0.000
       0.000  1.000  0.000
       0.000  0.000  1.000
     occupation matrix ns (before diag.):
       0.500  0.000  0.000
       0.000  0.500  0.000
       0.000  0.000  0.500
     ------------------------ ATOM   14 ------------------------
     Tr[ns( 14)] =   3.00000
     eigenvalues:
       0.500  0.500  0.500
     eigenvectors (columns):
       1.000  0.000  0.000
       0.000  1.000  0.000
       0.000  0.000  1.000
     occupation matrix ns (before diag.):
       0.500  0.000  0.000
       0.000  0.500  0.000
       0.000  0.000  0.500
     ------------------------ ATOM   15 ------------------------
     Tr[ns( 15)] =   3.00000
     eigenvalues:
       0.500  0.500  0.500
     eigenvectors (columns):
       1.000  0.000  0.000
       0.000  1.000  0.000
       0.000  0.000  1.000
     occupation matrix ns (before diag.):
       0.500  0.000  0.000
       0.000  0.500  0.000
       0.000  0.000  0.500
     ------------------------ ATOM   16 ------------------------
     Tr[ns( 16)] =   3.00000
     eigenvalues:
       0.500  0.500  0.500
     eigenvectors (columns):
       1.000  0.000  0.000
       0.000  1.000  0.000
       0.000  0.000  1.000
     occupation matrix ns (before diag.):
       0.500  0.000  0.000
       0.000  0.500  0.000
       0.000  0.000  0.500
     ------------------------ ATOM   17 ------------------------
     Tr[ns( 17)] =   1.00000
     eigenvalues:
       0.167  0.167  0.167
     eigenvectors (columns):
       1.000  0.000  0.000
       0.000  1.000  0.000
       0.000  0.000  1.000
     occupation matrix ns (before diag.):
       0.167  0.000  0.000
       0.000  0.167  0.000
       0.000  0.000  0.167
     ------------------------ ATOM   18 ------------------------
     Tr[ns( 18)] =   1.00000
     eigenvalues:
       0.167  0.167  0.167
     eigenvectors (columns):
       1.000  0.000  0.000
       0.000  1.000  0.000
       0.000  0.000  1.000
     occupation matrix ns (before diag.):
       0.167  0.000  0.000
       0.000  0.167  0.000
       0.000  0.000  0.167
     ------------------------ ATOM   19 ------------------------
     Tr[ns( 19)] =   1.00000
     eigenvalues:
       0.167  0.167  0.167
     eigenvectors (columns):
       1.000  0.000  0.000
       0.000  1.000  0.000
       0.000  0.000  1.000
     occupation matrix ns (before diag.):
       0.167  0.000  0.000
       0.000  0.167  0.000
       0.000  0.000  0.167
     ------------------------ ATOM   20 ------------------------
     Tr[ns( 20)] =   1.00000
     eigenvalues:
       0.167  0.167  0.167
     eigenvectors (columns):
       1.000  0.000  0.000
       0.000  1.000  0.000
       0.000  0.000  1.000
     occupation matrix ns (before diag.):
       0.167  0.000  0.000
       0.000  0.167  0.000
       0.000  0.000  0.167
     ------------------------ ATOM   21 ------------------------
     Tr[ns( 21)] =   3.00000
     eigenvalues:
       0.500  0.500  0.500
     eigenvectors (columns):
       1.000  0.000  0.000
       0.000  1.000  0.000
       0.000  0.000  1.000
     occupation matrix ns (before diag.):
       0.500  0.000  0.000
       0.000  0.500  0.000
       0.000  0.000  0.500
     ------------------------ ATOM   22 ------------------------
     Tr[ns( 22)] =   3.00000
     eigenvalues:
       0.500  0.500  0.500
     eigenvectors (columns):
       1.000  0.000  0.000
       0.000  1.000  0.000
       0.000  0.000  1.000
     occupation matrix ns (before diag.):
       0.500  0.000  0.000
       0.000  0.500  0.000
       0.000  0.000  0.500
     ------------------------ ATOM   23 ------------------------
     Tr[ns( 23)] =   3.00000
     eigenvalues:
       0.500  0.500  0.500
     eigenvectors (columns):
       1.000  0.000  0.000
       0.000  1.000  0.000
       0.000  0.000  1.000
     occupation matrix ns (before diag.):
       0.500  0.000  0.000
       0.000  0.500  0.000
       0.000  0.000  0.500
     ------------------------ ATOM   24 ------------------------
     Tr[ns( 24)] =   3.00000
     eigenvalues:
       0.500  0.500  0.500
     eigenvectors (columns):
       1.000  0.000  0.000
       0.000  1.000  0.000
       0.000  0.000  1.000
     occupation matrix ns (before diag.):
       0.500  0.000  0.000
       0.000  0.500  0.000
       0.000  0.000  0.500
     ------------------------ ATOM   25 ------------------------
     Tr[ns( 25)] =   1.00000
     eigenvalues:
       0.167  0.167  0.167
     eigenvectors (columns):
       1.000  0.000  0.000
       0.000  1.000  0.000
       0.000  0.000  1.000
     occupation matrix ns (before diag.):
       0.167  0.000  0.000
       0.000  0.167  0.000
       0.000  0.000  0.167
     ------------------------ ATOM   26 ------------------------
     Tr[ns( 26)] =   1.00000
     eigenvalues:
       0.167  0.167  0.167
     eigenvectors (columns):
       1.000  0.000  0.000
       0.000  1.000  0.000
       0.000  0.000  1.000
     occupation matrix ns (before diag.):
       0.167  0.000  0.000
       0.000  0.167  0.000
       0.000  0.000  0.167
     ------------------------ ATOM   27 ------------------------
     Tr[ns( 27)] =   1.00000
     eigenvalues:
       0.167  0.167  0.167
     eigenvectors (columns):
       1.000  0.000  0.000
       0.000  1.000  0.000
       0.000  0.000  1.000
     occupation matrix ns (before diag.):
       0.167  0.000  0.000
       0.000  0.167  0.000
       0.000  0.000  0.167
     ------------------------ ATOM   28 ------------------------
     Tr[ns( 28)] =   1.00000
     eigenvalues:
       0.167  0.167  0.167
     eigenvectors (columns):
       1.000  0.000  0.000
       0.000  1.000  0.000
       0.000  0.000  1.000
     occupation matrix ns (before diag.):
       0.167  0.000  0.000
       0.000  0.167  0.000
       0.000  0.000  0.167
     ------------------------ ATOM   29 ------------------------
     Tr[ns( 29)] =   3.00000
     eigenvalues:
       0.500  0.500  0.500
     eigenvectors (columns):
       1.000  0.000  0.000
       0.000  1.000  0.000
       0.000  0.000  1.000
     occupation matrix ns (before diag.):
       0.500  0.000  0.000
       0.000  0.500  0.000
       0.000  0.000  0.500
     ------------------------ ATOM   30 ------------------------
     Tr[ns( 30)] =   3.00000
     eigenvalues:
       0.500  0.500  0.500
     eigenvectors (columns):
       1.000  0.000  0.000
       0.000  1.000  0.000
       0.000  0.000  1.000
     occupation matrix ns (before diag.):
       0.500  0.000  0.000
       0.000  0.500  0.000
       0.000  0.000  0.500
     ------------------------ ATOM   31 ------------------------
     Tr[ns( 31)] =   3.00000
     eigenvalues:
       0.500  0.500  0.500
     eigenvectors (columns):
       1.000  0.000  0.000
       0.000  1.000  0.000
       0.000  0.000  1.000
     occupation matrix ns (before diag.):
       0.500  0.000  0.000
       0.000  0.500  0.000
       0.000  0.000  0.500
     ------------------------ ATOM   32 ------------------------
     Tr[ns( 32)] =   3.00000
     eigenvalues:
       0.500  0.500  0.500
     eigenvectors (columns):
       1.000  0.000  0.000
       0.000  1.000  0.000
       0.000  0.000  1.000
     occupation matrix ns (before diag.):
       0.500  0.000  0.000
       0.000  0.500  0.000
       0.000  0.000  0.500
     ------------------------ ATOM   33 ------------------------
     Tr[ns( 33)] =   1.00000
     eigenvalues:
       0.167  0.167  0.167
     eigenvectors (columns):
       1.000  0.000  0.000
       0.000  1.000  0.000
       0.000  0.000  1.000
     occupation matrix ns (before diag.):
       0.167  0.000  0.000
       0.000  0.167  0.000
       0.000  0.000  0.167
     ------------------------ ATOM   34 ------------------------
     Tr[ns( 34)] =   1.00000
     eigenvalues:
       0.167  0.167  0.167
     eigenvectors (columns):
       1.000  0.000  0.000
       0.000  1.000  0.000
       0.000  0.000  1.000
     occupation matrix ns (before diag.):
       0.167  0.000  0.000
       0.000  0.167  0.000
       0.000  0.000  0.167
     ------------------------ ATOM   35 ------------------------
     Tr[ns( 35)] =   1.00000
     eigenvalues:
       0.167  0.167  0.167
     eigenvectors (columns):
       1.000  0.000  0.000
       0.000  1.000  0.000
       0.000  0.000  1.000
     occupation matrix ns (before diag.):
       0.167  0.000  0.000
       0.000  0.167  0.000
       0.000  0.000  0.167
     ------------------------ ATOM   36 ------------------------
     Tr[ns( 36)] =   1.00000
     eigenvalues:
       0.167  0.167  0.167
     eigenvectors (columns):
       1.000  0.000  0.000
       0.000  1.000  0.000
       0.000  0.000  1.000
     occupation matrix ns (before diag.):
       0.167  0.000  0.000
       0.000  0.167  0.000
       0.000  0.000  0.167
     ------------------------ ATOM   37 ------------------------
     Tr[ns( 37)] =   3.00000
     eigenvalues:
       0.500  0.500  0.500
     eigenvectors (columns):
       1.000  0.000  0.000
       0.000  1.000  0.000
       0.000  0.000  1.000
     occupation matrix ns (before diag.):
       0.500  0.000  0.000
       0.000  0.500  0.000
       0.000  0.000  0.500
     ------------------------ ATOM   38 ------------------------
     Tr[ns( 38)] =   3.00000
     eigenvalues:
       0.500  0.500  0.500
     eigenvectors (columns):
       1.000  0.000  0.000
       0.000  1.000  0.000
       0.000  0.000  1.000
     occupation matrix ns (before diag.):
       0.500  0.000  0.000
       0.000  0.500  0.000
       0.000  0.000  0.500
     ------------------------ ATOM   39 ------------------------
     Tr[ns( 39)] =   3.00000
     eigenvalues:
       0.500  0.500  0.500
     eigenvectors (columns):
       1.000  0.000  0.000
       0.000  1.000  0.000
       0.000  0.000  1.000
     occupation matrix ns (before diag.):
       0.500  0.000  0.000
       0.000  0.500  0.000
       0.000  0.000  0.500
     ------------------------ ATOM   40 ------------------------
     Tr[ns( 40)] =   3.00000
     eigenvalues:
       0.500  0.500  0.500
     eigenvectors (columns):
       1.000  0.000  0.000
       0.000  1.000  0.000
       0.000  0.000  1.000
     occupation matrix ns (before diag.):
       0.500  0.000  0.000
       0.000  0.500  0.000
       0.000  0.000  0.500
     ------------------------ ATOM   41 ------------------------
     Tr[ns( 41)] =   1.00000
     eigenvalues:
       0.167  0.167  0.167
     eigenvectors (columns):
       1.000  0.000  0.000
       0.000  1.000  0.000
       0.000  0.000  1.000
     occupation matrix ns (before diag.):
       0.167  0.000  0.000
       0.000  0.167  0.000
       0.000  0.000  0.167
     ------------------------ ATOM   42 ------------------------
     Tr[ns( 42)] =   1.00000
     eigenvalues:
       0.167  0.167  0.167
     eigenvectors (columns):
       1.000  0.000  0.000
       0.000  1.000  0.000
       0.000  0.000  1.000
     occupation matrix ns (before diag.):
       0.167  0.000  0.000
       0.000  0.167  0.000
       0.000  0.000  0.167
     ------------------------ ATOM   43 ------------------------
     Tr[ns( 43)] =   1.00000
     eigenvalues:
       0.167  0.167  0.167
     eigenvectors (columns):
       1.000  0.000  0.000
       0.000  1.000  0.000
       0.000  0.000  1.000
     occupation matrix ns (before diag.):
       0.167  0.000  0.000
       0.000  0.167  0.000
       0.000  0.000  0.167
     ------------------------ ATOM   44 ------------------------
     Tr[ns( 44)] =   1.00000
     eigenvalues:
       0.167  0.167  0.167
     eigenvectors (columns):
       1.000  0.000  0.000
       0.000  1.000  0.000
       0.000  0.000  1.000
     occupation matrix ns (before diag.):
       0.167  0.000  0.000
       0.000  0.167  0.000
       0.000  0.000  0.167
     ------------------------ ATOM   45 ------------------------
     Tr[ns( 45)] =   3.00000
     eigenvalues:
       0.500  0.500  0.500
     eigenvectors (columns):
       1.000  0.000  0.000
       0.000  1.000  0.000
       0.000  0.000  1.000
     occupation matrix ns (before diag.):
       0.500  0.000  0.000
       0.000  0.500  0.000
       0.000  0.000  0.500
     ------------------------ ATOM   46 ------------------------
     Tr[ns( 46)] =   3.00000
     eigenvalues:
       0.500  0.500  0.500
     eigenvectors (columns):
       1.000  0.000  0.000
       0.000  1.000  0.000
       0.000  0.000  1.000
     occupation matrix ns (before diag.):
       0.500  0.000  0.000
       0.000  0.500  0.000
       0.000  0.000  0.500
     ------------------------ ATOM   47 ------------------------
     Tr[ns( 47)] =   3.00000
     eigenvalues:
       0.500  0.500  0.500
     eigenvectors (columns):
       1.000  0.000  0.000
       0.000  1.000  0.000
       0.000  0.000  1.000
     occupation matrix ns (before diag.):
       0.500  0.000  0.000
       0.000  0.500  0.000
       0.000  0.000  0.500
     ------------------------ ATOM   48 ------------------------
     Tr[ns( 48)] =   3.00000
     eigenvalues:
       0.500  0.500  0.500
     eigenvectors (columns):
       1.000  0.000  0.000
       0.000  1.000  0.000
       0.000  0.000  1.000
     occupation matrix ns (before diag.):
       0.500  0.000  0.000
       0.000  0.500  0.000
       0.000  0.000  0.500
     ------------------------ ATOM   49 ------------------------
     Tr[ns( 49)] =   1.00000
     eigenvalues:
       0.167  0.167  0.167
     eigenvectors (columns):
       1.000  0.000  0.000
       0.000  1.000  0.000
       0.000  0.000  1.000
     occupation matrix ns (before diag.):
       0.167  0.000  0.000
       0.000  0.167  0.000
       0.000  0.000  0.167
     ------------------------ ATOM   50 ------------------------
     Tr[ns( 50)] =   1.00000
     eigenvalues:
       0.167  0.167  0.167
     eigenvectors (columns):
       1.000  0.000  0.000
       0.000  1.000  0.000
       0.000  0.000  1.000
     occupation matrix ns (before diag.):
       0.167  0.000  0.000
       0.000  0.167  0.000
       0.000  0.000  0.167
     ------------------------ ATOM   51 ------------------------
     Tr[ns( 51)] =   1.00000
     eigenvalues:
       0.167  0.167  0.167
     eigenvectors (columns):
       1.000  0.000  0.000
       0.000  1.000  0.000
       0.000  0.000  1.000
     occupation matrix ns (before diag.):
       0.167  0.000  0.000
       0.000  0.167  0.000
       0.000  0.000  0.167
     ------------------------ ATOM   52 ------------------------
     Tr[ns( 52)] =   1.00000
     eigenvalues:
       0.167  0.167  0.167
     eigenvectors (columns):
       1.000  0.000  0.000
       0.000  1.000  0.000
       0.000  0.000  1.000
     occupation matrix ns (before diag.):
       0.167  0.000  0.000
       0.000  0.167  0.000
       0.000  0.000  0.167
     ------------------------ ATOM   53 ------------------------
     Tr[ns( 53)] =   3.00000
     eigenvalues:
       0.500  0.500  0.500
     eigenvectors (columns):
       1.000  0.000  0.000
       0.000  1.000  0.000
       0.000  0.000  1.000
     occupation matrix ns (before diag.):
       0.500  0.000  0.000
       0.000  0.500  0.000
       0.000  0.000  0.500
     ------------------------ ATOM   54 ------------------------
     Tr[ns( 54)] =   3.00000
     eigenvalues:
       0.500  0.500  0.500
     eigenvectors (columns):
       1.000  0.000  0.000
       0.000  1.000  0.000
       0.000  0.000  1.000
     occupation matrix ns (before diag.):
       0.500  0.000  0.000
       0.000  0.500  0.000
       0.000  0.000  0.500
     ------------------------ ATOM   55 ------------------------
     Tr[ns( 55)] =   3.00000
     eigenvalues:
       0.500  0.500  0.500
     eigenvectors (columns):
       1.000  0.000  0.000
       0.000  1.000  0.000
       0.000  0.000  1.000
     occupation matrix ns (before diag.):
       0.500  0.000  0.000
       0.000  0.500  0.000
       0.000  0.000  0.500
     ------------------------ ATOM   56 ------------------------
     Tr[ns( 56)] =   3.00000
     eigenvalues:
       0.500  0.500  0.500
     eigenvectors (columns):
       1.000  0.000  0.000
       0.000  1.000  0.000
       0.000  0.000  1.000
     occupation matrix ns (before diag.):
       0.500  0.000  0.000
       0.000  0.500  0.000
       0.000  0.000  0.500
     ------------------------ ATOM   57 ------------------------
     Tr[ns( 57)] =   1.00000
     eigenvalues:
       0.167  0.167  0.167
     eigenvectors (columns):
       1.000  0.000  0.000
       0.000  1.000  0.000
       0.000  0.000  1.000
     occupation matrix ns (before diag.):
       0.167  0.000  0.000
       0.000  0.167  0.000
       0.000  0.000  0.167
     ------------------------ ATOM   58 ------------------------
     Tr[ns( 58)] =   1.00000
     eigenvalues:
       0.167  0.167  0.167
     eigenvectors (columns):
       1.000  0.000  0.000
       0.000  1.000  0.000
       0.000  0.000  1.000
     occupation matrix ns (before diag.):
       0.167  0.000  0.000
       0.000  0.167  0.000
       0.000  0.000  0.167
     ------------------------ ATOM   59 ------------------------
     Tr[ns( 59)] =   1.00000
     eigenvalues:
       0.167  0.167  0.167
     eigenvectors (columns):
       1.000  0.000  0.000
       0.000  1.000  0.000
       0.000  0.000  1.000
     occupation matrix ns (before diag.):
       0.167  0.000  0.000
       0.000  0.167  0.000
       0.000  0.000  0.167
     ------------------------ ATOM   60 ------------------------
     Tr[ns( 60)] =   1.00000
     eigenvalues:
       0.167  0.167  0.167
     eigenvectors (columns):
       1.000  0.000  0.000
       0.000  1.000  0.000
       0.000  0.000  1.000
     occupation matrix ns (before diag.):
       0.167  0.000  0.000
       0.000  0.167  0.000
       0.000  0.000  0.167
     ------------------------ ATOM   61 ------------------------
     Tr[ns( 61)] =   3.00000
     eigenvalues:
       0.500  0.500  0.500
     eigenvectors (columns):
       1.000  0.000  0.000
       0.000  1.000  0.000
       0.000  0.000  1.000
     occupation matrix ns (before diag.):
       0.500  0.000  0.000
       0.000  0.500  0.000
       0.000  0.000  0.500
     ------------------------ ATOM   62 ------------------------
     Tr[ns( 62)] =   3.00000
     eigenvalues:
       0.500  0.500  0.500
     eigenvectors (columns):
       1.000  0.000  0.000
       0.000  1.000  0.000
       0.000  0.000  1.000
     occupation matrix ns (before diag.):
       0.500  0.000  0.000
       0.000  0.500  0.000
       0.000  0.000  0.500
     ------------------------ ATOM   63 ------------------------
     Tr[ns( 63)] =   3.00000
     eigenvalues:
       0.500  0.500  0.500
     eigenvectors (columns):
       1.000  0.000  0.000
       0.000  1.000  0.000
       0.000  0.000  1.000
     occupation matrix ns (before diag.):
       0.500  0.000  0.000
       0.000  0.500  0.000
       0.000  0.000  0.500
     ------------------------ ATOM   64 ------------------------
     Tr[ns( 64)] =   3.00000
     eigenvalues:
       0.500  0.500  0.500
     eigenvectors (columns):
       1.000  0.000  0.000
       0.000  1.000  0.000
       0.000  0.000  1.000
     occupation matrix ns (before diag.):
       0.500  0.000  0.000
       0.000  0.500  0.000
       0.000  0.000  0.500
     ------------------------ ATOM   65 ------------------------
     Tr[ns( 65)] =   1.00000
     eigenvalues:
       0.167  0.167  0.167
     eigenvectors (columns):
       1.000  0.000  0.000
       0.000  1.000  0.000
       0.000  0.000  1.000
     occupation matrix ns (before diag.):
       0.167  0.000  0.000
       0.000  0.167  0.000
       0.000  0.000  0.167
     ------------------------ ATOM   66 ------------------------
     Tr[ns( 66)] =   1.00000
     eigenvalues:
       0.167  0.167  0.167
     eigenvectors (columns):
       1.000  0.000  0.000
       0.000  1.000  0.000
       0.000  0.000  1.000
     occupation matrix ns (before diag.):
       0.167  0.000  0.000
       0.000  0.167  0.000
       0.000  0.000  0.167
     ------------------------ ATOM   67 ------------------------
     Tr[ns( 67)] =   1.00000
     eigenvalues:
       0.167  0.167  0.167
     eigenvectors (columns):
       1.000  0.000  0.000
       0.000  1.000  0.000
       0.000  0.000  1.000
     occupation matrix ns (before diag.):
       0.167  0.000  0.000
       0.000  0.167  0.000
       0.000  0.000  0.167
     ------------------------ ATOM   68 ------------------------
     Tr[ns( 68)] =   1.00000
     eigenvalues:
       0.167  0.167  0.167
     eigenvectors (columns):
       1.000  0.000  0.000
       0.000  1.000  0.000
       0.000  0.000  1.000
     occupation matrix ns (before diag.):
       0.167  0.000  0.000
       0.000  0.167  0.000
       0.000  0.000  0.167
     ------------------------ ATOM   69 ------------------------
     Tr[ns( 69)] =   3.00000
     eigenvalues:
       0.500  0.500  0.500
     eigenvectors (columns):
       1.000  0.000  0.000
       0.000  1.000  0.000
       0.000  0.000  1.000
     occupation matrix ns (before diag.):
       0.500  0.000  0.000
       0.000  0.500  0.000
       0.000  0.000  0.500
     ------------------------ ATOM   70 ------------------------
     Tr[ns( 70)] =   3.00000
     eigenvalues:
       0.500  0.500  0.500
     eigenvectors (columns):
       1.000  0.000  0.000
       0.000  1.000  0.000
       0.000  0.000  1.000
     occupation matrix ns (before diag.):
       0.500  0.000  0.000
       0.000  0.500  0.000
       0.000  0.000  0.500
     ------------------------ ATOM   71 ------------------------
     Tr[ns( 71)] =   3.00000
     eigenvalues:
       0.500  0.500  0.500
     eigenvectors (columns):
       1.000  0.000  0.000
       0.000  1.000  0.000
       0.000  0.000  1.000
     occupation matrix ns (before diag.):
       0.500  0.000  0.000
       0.000  0.500  0.000
       0.000  0.000  0.500
     ------------------------ ATOM   72 ------------------------
     Tr[ns( 72)] =   3.00000
     eigenvalues:
       0.500  0.500  0.500
     eigenvectors (columns):
       1.000  0.000  0.000
       0.000  1.000  0.000
       0.000  0.000  1.000
     occupation matrix ns (before diag.):
       0.500  0.000  0.000
       0.000  0.500  0.000
       0.000  0.000  0.500
     ------------------------ ATOM   73 ------------------------
     Tr[ns( 73)] =   1.00000
     eigenvalues:
       0.167  0.167  0.167
     eigenvectors (columns):
       1.000  0.000  0.000
       0.000  1.000  0.000
       0.000  0.000  1.000
     occupation matrix ns (before diag.):
       0.167  0.000  0.000
       0.000  0.167  0.000
       0.000  0.000  0.167
     ------------------------ ATOM   74 ------------------------
     Tr[ns( 74)] =   1.00000
     eigenvalues:
       0.167  0.167  0.167
     eigenvectors (columns):
       1.000  0.000  0.000
       0.000  1.000  0.000
       0.000  0.000  1.000
     occupation matrix ns (before diag.):
       0.167  0.000  0.000
       0.000  0.167  0.000
       0.000  0.000  0.167
     ------------------------ ATOM   75 ------------------------
     Tr[ns( 75)] =   1.00000
     eigenvalues:
       0.167  0.167  0.167
     eigenvectors (columns):
       1.000  0.000  0.000
       0.000  1.000  0.000
       0.000  0.000  1.000
     occupation matrix ns (before diag.):
       0.167  0.000  0.000
       0.000  0.167  0.000
       0.000  0.000  0.167
     ------------------------ ATOM   76 ------------------------
     Tr[ns( 76)] =   1.00000
     eigenvalues:
       0.167  0.167  0.167
     eigenvectors (columns):
       1.000  0.000  0.000
       0.000  1.000  0.000
       0.000  0.000  1.000
     occupation matrix ns (before diag.):
       0.167  0.000  0.000
       0.000  0.167  0.000
       0.000  0.000  0.167
     ------------------------ ATOM   77 ------------------------
     Tr[ns( 77)] =   3.00000
     eigenvalues:
       0.500  0.500  0.500
     eigenvectors (columns):
       1.000  0.000  0.000
       0.000  1.000  0.000
       0.000  0.000  1.000
     occupation matrix ns (before diag.):
       0.500  0.000  0.000
       0.000  0.500  0.000
       0.000  0.000  0.500
     ------------------------ ATOM   78 ------------------------
     Tr[ns( 78)] =   3.00000
     eigenvalues:
       0.500  0.500  0.500
     eigenvectors (columns):
       1.000  0.000  0.000
       0.000  1.000  0.000
       0.000  0.000  1.000
     occupation matrix ns (before diag.):
       0.500  0.000  0.000
       0.000  0.500  0.000
       0.000  0.000  0.500
     ------------------------ ATOM   79 ------------------------
     Tr[ns( 79)] =   3.00000
     eigenvalues:
       0.500  0.500  0.500
     eigenvectors (columns):
       1.000  0.000  0.000
       0.000  1.000  0.000
       0.000  0.000  1.000
     occupation matrix ns (before diag.):
       0.500  0.000  0.000
       0.000  0.500  0.000
       0.000  0.000  0.500
     ------------------------ ATOM   80 ------------------------
     Tr[ns( 80)] =   3.00000
     eigenvalues:
       0.500  0.500  0.500
     eigenvectors (columns):
       1.000  0.000  0.000
       0.000  1.000  0.000
       0.000  0.000  1.000
     occupation matrix ns (before diag.):
       0.500  0.000  0.000
       0.000  0.500  0.000
       0.000  0.000  0.500
     ------------------------ ATOM   81 ------------------------
     Tr[ns( 81)] =   1.00000
     eigenvalues:
       0.167  0.167  0.167
     eigenvectors (columns):
       1.000  0.000  0.000
       0.000  1.000  0.000
       0.000  0.000  1.000
     occupation matrix ns (before diag.):
       0.167  0.000  0.000
       0.000  0.167  0.000
       0.000  0.000  0.167
     ------------------------ ATOM   82 ------------------------
     Tr[ns( 82)] =   1.00000
     eigenvalues:
       0.167  0.167  0.167
     eigenvectors (columns):
       1.000  0.000  0.000
       0.000  1.000  0.000
       0.000  0.000  1.000
     occupation matrix ns (before diag.):
       0.167  0.000  0.000
       0.000  0.167  0.000
       0.000  0.000  0.167
     ------------------------ ATOM   83 ------------------------
     Tr[ns( 83)] =   1.00000
     eigenvalues:
       0.167  0.167  0.167
     eigenvectors (columns):
       1.000  0.000  0.000
       0.000  1.000  0.000
       0.000  0.000  1.000
     occupation matrix ns (before diag.):
       0.167  0.000  0.000
       0.000  0.167  0.000
       0.000  0.000  0.167
     ------------------------ ATOM   84 ------------------------
     Tr[ns( 84)] =   1.00000
     eigenvalues:
       0.167  0.167  0.167
     eigenvectors (columns):
       1.000  0.000  0.000
       0.000  1.000  0.000
       0.000  0.000  1.000
     occupation matrix ns (before diag.):
       0.167  0.000  0.000
       0.000  0.167  0.000
       0.000  0.000  0.167
     ------------------------ ATOM   85 ------------------------
     Tr[ns( 85)] =   3.00000
     eigenvalues:
       0.500  0.500  0.500
     eigenvectors (columns):
       1.000  0.000  0.000
       0.000  1.000  0.000
       0.000  0.000  1.000
     occupation matrix ns (before diag.):
       0.500  0.000  0.000
       0.000  0.500  0.000
       0.000  0.000  0.500
     ------------------------ ATOM   86 ------------------------
     Tr[ns( 86)] =   3.00000
     eigenvalues:
       0.500  0.500  0.500
     eigenvectors (columns):
       1.000  0.000  0.000
       0.000  1.000  0.000
       0.000  0.000  1.000
     occupation matrix ns (before diag.):
       0.500  0.000  0.000
       0.000  0.500  0.000
       0.000  0.000  0.500
     ------------------------ ATOM   87 ------------------------
     Tr[ns( 87)] =   3.00000
     eigenvalues:
       0.500  0.500  0.500
     eigenvectors (columns):
       1.000  0.000  0.000
       0.000  1.000  0.000
       0.000  0.000  1.000
     occupation matrix ns (before diag.):
       0.500  0.000  0.000
       0.000  0.500  0.000
       0.000  0.000  0.500
     ------------------------ ATOM   88 ------------------------
     Tr[ns( 88)] =   3.00000
     eigenvalues:
       0.500  0.500  0.500
     eigenvectors (columns):
       1.000  0.000  0.000
       0.000  1.000  0.000
       0.000  0.000  1.000
     occupation matrix ns (before diag.):
       0.500  0.000  0.000
       0.000  0.500  0.000
       0.000  0.000  0.500
     ------------------------ ATOM   89 ------------------------
     Tr[ns( 89)] =   1.00000
     eigenvalues:
       0.167  0.167  0.167
     eigenvectors (columns):
       1.000  0.000  0.000
       0.000  1.000  0.000
       0.000  0.000  1.000
     occupation matrix ns (before diag.):
       0.167  0.000  0.000
       0.000  0.167  0.000
       0.000  0.000  0.167
     ------------------------ ATOM   90 ------------------------
     Tr[ns( 90)] =   1.00000
     eigenvalues:
       0.167  0.167  0.167
     eigenvectors (columns):
       1.000  0.000  0.000
       0.000  1.000  0.000
       0.000  0.000  1.000
     occupation matrix ns (before diag.):
       0.167  0.000  0.000
       0.000  0.167  0.000
       0.000  0.000  0.167
     ------------------------ ATOM   91 ------------------------
     Tr[ns( 91)] =   1.00000
     eigenvalues:
       0.167  0.167  0.167
     eigenvectors (columns):
       1.000  0.000  0.000
       0.000  1.000  0.000
       0.000  0.000  1.000
     occupation matrix ns (before diag.):
       0.167  0.000  0.000
       0.000  0.167  0.000
       0.000  0.000  0.167
     ------------------------ ATOM   92 ------------------------
     Tr[ns( 92)] =   1.00000
     eigenvalues:
       0.167  0.167  0.167
     eigenvectors (columns):
       1.000  0.000  0.000
       0.000  1.000  0.000
       0.000  0.000  1.000
     occupation matrix ns (before diag.):
       0.167  0.000  0.000
       0.000  0.167  0.000
       0.000  0.000  0.167
     ------------------------ ATOM   93 ------------------------
     Tr[ns( 93)] =   3.00000
     eigenvalues:
       0.500  0.500  0.500
     eigenvectors (columns):
       1.000  0.000  0.000
       0.000  1.000  0.000
       0.000  0.000  1.000
     occupation matrix ns (before diag.):
       0.500  0.000  0.000
       0.000  0.500  0.000
       0.000  0.000  0.500
     ------------------------ ATOM   94 ------------------------
     Tr[ns( 94)] =   3.00000
     eigenvalues:
       0.500  0.500  0.500
     eigenvectors (columns):
       1.000  0.000  0.000
       0.000  1.000  0.000
       0.000  0.000  1.000
     occupation matrix ns (before diag.):
       0.500  0.000  0.000
       0.000  0.500  0.000
       0.000  0.000  0.500
     ------------------------ ATOM   95 ------------------------
     Tr[ns( 95)] =   3.00000
     eigenvalues:
       0.500  0.500  0.500
     eigenvectors (columns):
       1.000  0.000  0.000
       0.000  1.000  0.000
       0.000  0.000  1.000
     occupation matrix ns (before diag.):
       0.500  0.000  0.000
       0.000  0.500  0.000
       0.000  0.000  0.500
     ------------------------ ATOM   96 ------------------------
     Tr[ns( 96)] =   3.00000
     eigenvalues:
       0.500  0.500  0.500
     eigenvectors (columns):
       1.000  0.000  0.000
       0.000  1.000  0.000
       0.000  0.000  1.000
     occupation matrix ns (before diag.):
       0.500  0.000  0.000
       0.000  0.500  0.000
       0.000  0.000  0.500
     ------------------------ ATOM   97 ------------------------
     Tr[ns( 97)] =   1.00000
     eigenvalues:
       0.167  0.167  0.167
     eigenvectors (columns):
       1.000  0.000  0.000
       0.000  1.000  0.000
       0.000  0.000  1.000
     occupation matrix ns (before diag.):
       0.167  0.000  0.000
       0.000  0.167  0.000
       0.000  0.000  0.167
     ------------------------ ATOM   98 ------------------------
     Tr[ns( 98)] =   1.00000
     eigenvalues:
       0.167  0.167  0.167
     eigenvectors (columns):
       1.000  0.000  0.000
       0.000  1.000  0.000
       0.000  0.000  1.000
     occupation matrix ns (before diag.):
       0.167  0.000  0.000
       0.000  0.167  0.000
       0.000  0.000  0.167
     ------------------------ ATOM   99 ------------------------
     Tr[ns( 99)] =   1.00000
     eigenvalues:
       0.167  0.167  0.167
     eigenvectors (columns):
       1.000  0.000  0.000
       0.000  1.000  0.000
       0.000  0.000  1.000
     occupation matrix ns (before diag.):
       0.167  0.000  0.000
       0.000  0.167  0.000
       0.000  0.000  0.167
     ------------------------ ATOM  100 ------------------------
     Tr[ns(100)] =   1.00000
     eigenvalues:
       0.167  0.167  0.167
     eigenvectors (columns):
       1.000  0.000  0.000
       0.000  1.000  0.000
       0.000  0.000  1.000
     occupation matrix ns (before diag.):
       0.167  0.000  0.000
       0.000  0.167  0.000
       0.000  0.000  0.167
     ------------------------ ATOM  101 ------------------------
     Tr[ns(101)] =   3.00000
     eigenvalues:
       0.500  0.500  0.500
     eigenvectors (columns):
       1.000  0.000  0.000
       0.000  1.000  0.000
       0.000  0.000  1.000
     occupation matrix ns (before diag.):
       0.500  0.000  0.000
       0.000  0.500  0.000
       0.000  0.000  0.500
     ------------------------ ATOM  102 ------------------------
     Tr[ns(102)] =   3.00000
     eigenvalues:
       0.500  0.500  0.500
     eigenvectors (columns):
       1.000  0.000  0.000
       0.000  1.000  0.000
       0.000  0.000  1.000
     occupation matrix ns (before diag.):
       0.500  0.000  0.000
       0.000  0.500  0.000
       0.000  0.000  0.500
     ------------------------ ATOM  103 ------------------------
     Tr[ns(103)] =   3.00000
     eigenvalues:
       0.500  0.500  0.500
     eigenvectors (columns):
       1.000  0.000  0.000
       0.000  1.000  0.000
       0.000  0.000  1.000
     occupation matrix ns (before diag.):
       0.500  0.000  0.000
       0.000  0.500  0.000
       0.000  0.000  0.500
     ------------------------ ATOM  104 ------------------------
     Tr[ns(104)] =   3.00000
     eigenvalues:
       0.500  0.500  0.500
     eigenvectors (columns):
       1.000  0.000  0.000
       0.000  1.000  0.000
       0.000  0.000  1.000
     occupation matrix ns (before diag.):
       0.500  0.000  0.000
       0.000  0.500  0.000
       0.000  0.000  0.500
     ------------------------ ATOM  105 ------------------------
     Tr[ns(105)] =   1.00000
     eigenvalues:
       0.167  0.167  0.167
     eigenvectors (columns):
       1.000  0.000  0.000
       0.000  1.000  0.000
       0.000  0.000  1.000
     occupation matrix ns (before diag.):
       0.167  0.000  0.000
       0.000  0.167  0.000
       0.000  0.000  0.167
     ------------------------ ATOM  106 ------------------------
     Tr[ns(106)] =   1.00000
     eigenvalues:
       0.167  0.167  0.167
     eigenvectors (columns):
       1.000  0.000  0.000
       0.000  1.000  0.000
       0.000  0.000  1.000
     occupation matrix ns (before diag.):
       0.167  0.000  0.000
       0.000  0.167  0.000
       0.000  0.000  0.167
     ------------------------ ATOM  107 ------------------------
     Tr[ns(107)] =   1.00000
     eigenvalues:
       0.167  0.167  0.167
     eigenvectors (columns):
       1.000  0.000  0.000
       0.000  1.000  0.000
       0.000  0.000  1.000
     occupation matrix ns (before diag.):
       0.167  0.000  0.000
       0.000  0.167  0.000
       0.000  0.000  0.167
     ------------------------ ATOM  108 ------------------------
     Tr[ns(108)] =   1.00000
     eigenvalues:
       0.167  0.167  0.167
     eigenvectors (columns):
       1.000  0.000  0.000
       0.000  1.000  0.000
       0.000  0.000  1.000
     occupation matrix ns (before diag.):
       0.167  0.000  0.000
       0.000  0.167  0.000
       0.000  0.000  0.167
     ------------------------ ATOM  109 ------------------------
     Tr[ns(109)] =   3.00000
     eigenvalues:
       0.500  0.500  0.500
     eigenvectors (columns):
       1.000  0.000  0.000
       0.000  1.000  0.000
       0.000  0.000  1.000
     occupation matrix ns (before diag.):
       0.500  0.000  0.000
       0.000  0.500  0.000
       0.000  0.000  0.500
     ------------------------ ATOM  110 ------------------------
     Tr[ns(110)] =   3.00000
     eigenvalues:
       0.500  0.500  0.500
     eigenvectors (columns):
       1.000  0.000  0.000
       0.000  1.000  0.000
       0.000  0.000  1.000
     occupation matrix ns (before diag.):
       0.500  0.000  0.000
       0.000  0.500  0.000
       0.000  0.000  0.500
     ------------------------ ATOM  111 ------------------------
     Tr[ns(111)] =   3.00000
     eigenvalues:
       0.500  0.500  0.500
     eigenvectors (columns):
       1.000  0.000  0.000
       0.000  1.000  0.000
       0.000  0.000  1.000
     occupation matrix ns (before diag.):
       0.500  0.000  0.000
       0.000  0.500  0.000
       0.000  0.000  0.500
     ------------------------ ATOM  112 ------------------------
     Tr[ns(112)] =   3.00000
     eigenvalues:
       0.500  0.500  0.500
     eigenvectors (columns):
       1.000  0.000  0.000
       0.000  1.000  0.000
       0.000  0.000  1.000
     occupation matrix ns (before diag.):
       0.500  0.000  0.000
       0.000  0.500  0.000
       0.000  0.000  0.500
     ------------------------ ATOM  113 ------------------------
     Tr[ns(113)] =   1.00000
     eigenvalues:
       0.167  0.167  0.167
     eigenvectors (columns):
       1.000  0.000  0.000
       0.000  1.000  0.000
       0.000  0.000  1.000
     occupation matrix ns (before diag.):
       0.167  0.000  0.000
       0.000  0.167  0.000
       0.000  0.000  0.167
     ------------------------ ATOM  114 ------------------------
     Tr[ns(114)] =   1.00000
     eigenvalues:
       0.167  0.167  0.167
     eigenvectors (columns):
       1.000  0.000  0.000
       0.000  1.000  0.000
       0.000  0.000  1.000
     occupation matrix ns (before diag.):
       0.167  0.000  0.000
       0.000  0.167  0.000
       0.000  0.000  0.167
     ------------------------ ATOM  115 ------------------------
     Tr[ns(115)] =   1.00000
     eigenvalues:
       0.167  0.167  0.167
     eigenvectors (columns):
       1.000  0.000  0.000
       0.000  1.000  0.000
       0.000  0.000  1.000
     occupation matrix ns (before diag.):
       0.167  0.000  0.000
       0.000  0.167  0.000
       0.000  0.000  0.167
     ------------------------ ATOM  116 ------------------------
     Tr[ns(116)] =   1.00000
     eigenvalues:
       0.167  0.167  0.167
     eigenvectors (columns):
       1.000  0.000  0.000
       0.000  1.000  0.000
       0.000  0.000  1.000
     occupation matrix ns (before diag.):
       0.167  0.000  0.000
       0.000  0.167  0.000
       0.000  0.000  0.167
     ------------------------ ATOM  117 ------------------------
     Tr[ns(117)] =   3.00000
     eigenvalues:
       0.500  0.500  0.500
     eigenvectors (columns):
       1.000  0.000  0.000
       0.000  1.000  0.000
       0.000  0.000  1.000
     occupation matrix ns (before diag.):
       0.500  0.000  0.000
       0.000  0.500  0.000
       0.000  0.000  0.500
     ------------------------ ATOM  118 ------------------------
     Tr[ns(118)] =   3.00000
     eigenvalues:
       0.500  0.500  0.500
     eigenvectors (columns):
       1.000  0.000  0.000
       0.000  1.000  0.000
       0.000  0.000  1.000
     occupation matrix ns (before diag.):
       0.500  0.000  0.000
       0.000  0.500  0.000
       0.000  0.000  0.500
     ------------------------ ATOM  119 ------------------------
     Tr[ns(119)] =   3.00000
     eigenvalues:
       0.500  0.500  0.500
     eigenvectors (columns):
       1.000  0.000  0.000
       0.000  1.000  0.000
       0.000  0.000  1.000
     occupation matrix ns (before diag.):
       0.500  0.000  0.000
       0.000  0.500  0.000
       0.000  0.000  0.500
     ------------------------ ATOM  120 ------------------------
     Tr[ns(120)] =   3.00000
     eigenvalues:
       0.500  0.500  0.500
     eigenvectors (columns):
       1.000  0.000  0.000
       0.000  1.000  0.000
       0.000  0.000  1.000
     occupation matrix ns (before diag.):
       0.500  0.000  0.000
       0.000  0.500  0.000
       0.000  0.000  0.500
     ------------------------ ATOM  121 ------------------------
     Tr[ns(121)] =   1.00000
     eigenvalues:
       0.167  0.167  0.167
     eigenvectors (columns):
       1.000  0.000  0.000
       0.000  1.000  0.000
       0.000  0.000  1.000
     occupation matrix ns (before diag.):
       0.167  0.000  0.000
       0.000  0.167  0.000
       0.000  0.000  0.167
     ------------------------ ATOM  122 ------------------------
     Tr[ns(122)] =   1.00000
     eigenvalues:
       0.167  0.167  0.167
     eigenvectors (columns):
       1.000  0.000  0.000
       0.000  1.000  0.000
       0.000  0.000  1.000
     occupation matrix ns (before diag.):
       0.167  0.000  0.000
       0.000  0.167  0.000
       0.000  0.000  0.167
     ------------------------ ATOM  123 ------------------------
     Tr[ns(123)] =   1.00000
     eigenvalues:
       0.167  0.167  0.167
     eigenvectors (columns):
       1.000  0.000  0.000
       0.000  1.000  0.000
       0.000  0.000  1.000
     occupation matrix ns (before diag.):
       0.167  0.000  0.000
       0.000  0.167  0.000
       0.000  0.000  0.167
     ------------------------ ATOM  124 ------------------------
     Tr[ns(124)] =   1.00000
     eigenvalues:
       0.167  0.167  0.167
     eigenvectors (columns):
       1.000  0.000  0.000
       0.000  1.000  0.000
       0.000  0.000  1.000
     occupation matrix ns (before diag.):
       0.167  0.000  0.000
       0.000  0.167  0.000
       0.000  0.000  0.167
     ------------------------ ATOM  125 ------------------------
     Tr[ns(125)] =   3.00000
     eigenvalues:
       0.500  0.500  0.500
     eigenvectors (columns):
       1.000  0.000  0.000
       0.000  1.000  0.000
       0.000  0.000  1.000
     occupation matrix ns (before diag.):
       0.500  0.000  0.000
       0.000  0.500  0.000
       0.000  0.000  0.500
     ------------------------ ATOM  126 ------------------------
     Tr[ns(126)] =   3.00000
     eigenvalues:
       0.500  0.500  0.500
     eigenvectors (columns):
       1.000  0.000  0.000
       0.000  1.000  0.000
       0.000  0.000  1.000
     occupation matrix ns (before diag.):
       0.500  0.000  0.000
       0.000  0.500  0.000
       0.000  0.000  0.500
     ------------------------ ATOM  127 ------------------------
     Tr[ns(127)] =   3.00000
     eigenvalues:
       0.500  0.500  0.500
     eigenvectors (columns):
       1.000  0.000  0.000
       0.000  1.000  0.000
       0.000  0.000  1.000
     occupation matrix ns (before diag.):
       0.500  0.000  0.000
       0.000  0.500  0.000
       0.000  0.000  0.500
     ------------------------ ATOM  128 ------------------------
     Tr[ns(128)] =   3.00000
     eigenvalues:
       0.500  0.500  0.500
     eigenvectors (columns):
       1.000  0.000  0.000
       0.000  1.000  0.000
       0.000  0.000  1.000
     occupation matrix ns (before diag.):
       0.500  0.000  0.000
       0.000  0.500  0.000
       0.000  0.000  0.500
     ------------------------ ATOM  129 ------------------------
     Tr[ns(129)] =   1.00000
     eigenvalues:
       0.167  0.167  0.167
     eigenvectors (columns):
       1.000  0.000  0.000
       0.000  1.000  0.000
       0.000  0.000  1.000
     occupation matrix ns (before diag.):
       0.167  0.000  0.000
       0.000  0.167  0.000
       0.000  0.000  0.167
     ------------------------ ATOM  130 ------------------------
     Tr[ns(130)] =   1.00000
     eigenvalues:
       0.167  0.167  0.167
     eigenvectors (columns):
       1.000  0.000  0.000
       0.000  1.000  0.000
       0.000  0.000  1.000
     occupation matrix ns (before diag.):
       0.167  0.000  0.000
       0.000  0.167  0.000
       0.000  0.000  0.167
     ------------------------ ATOM  131 ------------------------
     Tr[ns(131)] =   1.00000
     eigenvalues:
       0.167  0.167  0.167
     eigenvectors (columns):
       1.000  0.000  0.000
       0.000  1.000  0.000
       0.000  0.000  1.000
     occupation matrix ns (before diag.):
       0.167  0.000  0.000
       0.000  0.167  0.000
       0.000  0.000  0.167
     ------------------------ ATOM  132 ------------------------
     Tr[ns(132)] =   1.00000
     eigenvalues:
       0.167  0.167  0.167
     eigenvectors (columns):
       1.000  0.000  0.000
       0.000  1.000  0.000
       0.000  0.000  1.000
     occupation matrix ns (before diag.):
       0.167  0.000  0.000
       0.000  0.167  0.000
       0.000  0.000  0.167
     ------------------------ ATOM  133 ------------------------
     Tr[ns(133)] =   3.00000
     eigenvalues:
       0.500  0.500  0.500
     eigenvectors (columns):
       1.000  0.000  0.000
       0.000  1.000  0.000
       0.000  0.000  1.000
     occupation matrix ns (before diag.):
       0.500  0.000  0.000
       0.000  0.500  0.000
       0.000  0.000  0.500
     ------------------------ ATOM  134 ------------------------
     Tr[ns(134)] =   3.00000
     eigenvalues:
       0.500  0.500  0.500
     eigenvectors (columns):
       1.000  0.000  0.000
       0.000  1.000  0.000
       0.000  0.000  1.000
     occupation matrix ns (before diag.):
       0.500  0.000  0.000
       0.000  0.500  0.000
       0.000  0.000  0.500
     ------------------------ ATOM  135 ------------------------
     Tr[ns(135)] =   3.00000
     eigenvalues:
       0.500  0.500  0.500
     eigenvectors (columns):
       1.000  0.000  0.000
       0.000  1.000  0.000
       0.000  0.000  1.000
     occupation matrix ns (before diag.):
       0.500  0.000  0.000
       0.000  0.500  0.000
       0.000  0.000  0.500
     ------------------------ ATOM  136 ------------------------
     Tr[ns(136)] =   3.00000
     eigenvalues:
       0.500  0.500  0.500
     eigenvectors (columns):
       1.000  0.000  0.000
       0.000  1.000  0.000
       0.000  0.000  1.000
     occupation matrix ns (before diag.):
       0.500  0.000  0.000
       0.000  0.500  0.000
       0.000  0.000  0.500
     ------------------------ ATOM  137 ------------------------
     Tr[ns(137)] =   1.00000
     eigenvalues:
       0.167  0.167  0.167
     eigenvectors (columns):
       1.000  0.000  0.000
       0.000  1.000  0.000
       0.000  0.000  1.000
     occupation matrix ns (before diag.):
       0.167  0.000  0.000
       0.000  0.167  0.000
       0.000  0.000  0.167
     ------------------------ ATOM  138 ------------------------
     Tr[ns(138)] =   1.00000
     eigenvalues:
       0.167  0.167  0.167
     eigenvectors (columns):
       1.000  0.000  0.000
       0.000  1.000  0.000
       0.000  0.000  1.000
     occupation matrix ns (before diag.):
       0.167  0.000  0.000
       0.000  0.167  0.000
       0.000  0.000  0.167
     ------------------------ ATOM  139 ------------------------
     Tr[ns(139)] =   1.00000
     eigenvalues:
       0.167  0.167  0.167
     eigenvectors (columns):
       1.000  0.000  0.000
       0.000  1.000  0.000
       0.000  0.000  1.000
     occupation matrix ns (before diag.):
       0.167  0.000  0.000
       0.000  0.167  0.000
       0.000  0.000  0.167
     ------------------------ ATOM  140 ------------------------
     Tr[ns(140)] =   1.00000
     eigenvalues:
       0.167  0.167  0.167
     eigenvectors (columns):
       1.000  0.000  0.000
       0.000  1.000  0.000
       0.000  0.000  1.000
     occupation matrix ns (before diag.):
       0.167  0.000  0.000
       0.000  0.167  0.000
       0.000  0.000  0.167
     ------------------------ ATOM  141 ------------------------
     Tr[ns(141)] =   3.00000
     eigenvalues:
       0.500  0.500  0.500
     eigenvectors (columns):
       1.000  0.000  0.000
       0.000  1.000  0.000
       0.000  0.000  1.000
     occupation matrix ns (before diag.):
       0.500  0.000  0.000
       0.000  0.500  0.000
       0.000  0.000  0.500
     ------------------------ ATOM  142 ------------------------
     Tr[ns(142)] =   3.00000
     eigenvalues:
       0.500  0.500  0.500
     eigenvectors (columns):
       1.000  0.000  0.000
       0.000  1.000  0.000
       0.000  0.000  1.000
     occupation matrix ns (before diag.):
       0.500  0.000  0.000
       0.000  0.500  0.000
       0.000  0.000  0.500
     ------------------------ ATOM  143 ------------------------
     Tr[ns(143)] =   3.00000
     eigenvalues:
       0.500  0.500  0.500
     eigenvectors (columns):
       1.000  0.000  0.000
       0.000  1.000  0.000
       0.000  0.000  1.000
     occupation matrix ns (before diag.):
       0.500  0.000  0.000
       0.000  0.500  0.000
       0.000  0.000  0.500
     ------------------------ ATOM  144 ------------------------
     Tr[ns(144)] =   3.00000
     eigenvalues:
       0.500  0.500  0.500
     eigenvectors (columns):
       1.000  0.000  0.000
       0.000  1.000  0.000
       0.000  0.000  1.000
     occupation matrix ns (before diag.):
       0.500  0.000  0.000
       0.000  0.500  0.000
       0.000  0.000  0.500
     ------------------------ ATOM  145 ------------------------
     Tr[ns(145)] =   1.00000
     eigenvalues:
       0.167  0.167  0.167
     eigenvectors (columns):
       1.000  0.000  0.000
       0.000  1.000  0.000
       0.000  0.000  1.000
     occupation matrix ns (before diag.):
       0.167  0.000  0.000
       0.000  0.167  0.000
       0.000  0.000  0.167
     ------------------------ ATOM  146 ------------------------
     Tr[ns(146)] =   1.00000
     eigenvalues:
       0.167  0.167  0.167
     eigenvectors (columns):
       1.000  0.000  0.000
       0.000  1.000  0.000
       0.000  0.000  1.000
     occupation matrix ns (before diag.):
       0.167  0.000  0.000
       0.000  0.167  0.000
       0.000  0.000  0.167
     ------------------------ ATOM  147 ------------------------
     Tr[ns(147)] =   1.00000
     eigenvalues:
       0.167  0.167  0.167
     eigenvectors (columns):
       1.000  0.000  0.000
       0.000  1.000  0.000
       0.000  0.000  1.000
     occupation matrix ns (before diag.):
       0.167  0.000  0.000
       0.000  0.167  0.000
       0.000  0.000  0.167
     ------------------------ ATOM  148 ------------------------
     Tr[ns(148)] =   1.00000
     eigenvalues:
       0.167  0.167  0.167
     eigenvectors (columns):
       1.000  0.000  0.000
       0.000  1.000  0.000
       0.000  0.000  1.000
     occupation matrix ns (before diag.):
       0.167  0.000  0.000
       0.000  0.167  0.000
       0.000  0.000  0.167
     ------------------------ ATOM  149 ------------------------
     Tr[ns(149)] =   3.00000
     eigenvalues:
       0.500  0.500  0.500
     eigenvectors (columns):
       1.000  0.000  0.000
       0.000  1.000  0.000
       0.000  0.000  1.000
     occupation matrix ns (before diag.):
       0.500  0.000  0.000
       0.000  0.500  0.000
       0.000  0.000  0.500
     ------------------------ ATOM  150 ------------------------
     Tr[ns(150)] =   3.00000
     eigenvalues:
       0.500  0.500  0.500
     eigenvectors (columns):
       1.000  0.000  0.000
       0.000  1.000  0.000
       0.000  0.000  1.000
     occupation matrix ns (before diag.):
       0.500  0.000  0.000
       0.000  0.500  0.000
       0.000  0.000  0.500
     ------------------------ ATOM  151 ------------------------
     Tr[ns(151)] =   3.00000
     eigenvalues:
       0.500  0.500  0.500
     eigenvectors (columns):
       1.000  0.000  0.000
       0.000  1.000  0.000
       0.000  0.000  1.000
     occupation matrix ns (before diag.):
       0.500  0.000  0.000
       0.000  0.500  0.000
       0.000  0.000  0.500
     ------------------------ ATOM  152 ------------------------
[...]
   -20.6024 -20.6021 -20.6020 -20.6020 -20.6019 -20.6018 -20.6017 -20.6017
   -20.6016 -20.6015 -20.6015 -20.6012 -20.6011 -20.6010 -20.6008 -20.6007
   -20.6007 -20.6006 -20.6005 -20.6004 -20.6003 -20.6000 -20.6000 -20.5999
   -20.5998 -20.5994 -20.5994 -20.5993 -20.5993 -20.5992 -20.5992 -20.5990
   -20.5990 -20.5989 -20.5989 -20.5986 -20.5985 -20.5982 -20.5982 -20.5981
   -20.5980 -20.5980 -20.5980 -20.5979 -20.5978 -20.5976 -20.5975 -20.5975
   -20.5974 -20.5973 -20.5970 -20.5970 -20.5967 -20.5966 -20.5965 -20.5964
   -20.5962 -20.5961 -20.5960 -20.5959 -20.5957 -20.5956 -20.5956 -20.5955
   -20.5952 -20.5952 -20.5952 -20.5952 -20.5949 -20.5946 -20.5946 -20.5945
   -20.5945 -20.5944 -20.5941 -20.5939 -20.5938 -20.5937 -20.5936 -20.5936
   -20.5935 -20.5933 -20.5932 -20.5930 -20.5929 -20.5928 -20.5927 -20.5927
   -20.5923 -20.5922 -20.5922 -20.5920 -20.5917 -20.5915 -20.5915 -20.5910
   -20.5909 -20.5906 -20.5906 -20.5906 -20.5904 -20.5903 -20.5902 -20.5902
   -20.5898 -20.5897 -20.5895 -20.5894 -20.5891 -20.5891 -20.5889 -20.5888
   -20.5884 -20.5884 -20.5884 -20.5883 -20.5880 -20.5879 -20.5876 -20.5876
   -20.5873 -20.5873 -20.5871 -20.5869 -20.5868 -20.5864 -20.5863 -20.5863
   -20.5860 -20.5860 -20.5859 -20.5857 -20.5853 -20.5852 -20.5851 -20.5851
   -20.5849 -20.5847 -20.5846 -20.5844 -20.5841 -20.5838 -20.5836 -20.5835
   -20.5835 -20.5833 -20.5820 -20.5817 -20.5816 -20.5811 -20.5810 -20.5808
   -20.5806 -20.5804 -20.5803 -20.5800 -20.5799 -20.5798 -20.5797 -20.5797
   -20.5796 -20.5795 -20.5791 -20.5791 -20.5785 -20.5777 -20.5772 -20.5767
   -20.5766 -20.5762 -20.5761 -20.5757 -20.5750 -20.5741 -20.5735 -20.5730
   -20.5728 -20.5727 -20.5723 -20.5715 -20.5712 -20.5709 -20.5708 -20.5705
   -20.5703 -20.5699 -20.5694 -20.5691 -20.5690 -20.5680 -20.5680 -20.5673
   -20.5667 -20.5665 -20.5662 -20.5661 -20.5659 -20.5633 -20.5623 -20.5599
   -20.5560 -20.5528 -20.5514 -20.5480  -7.5328  -7.5310  -7.5287  -7.5263
    -7.5251  -7.5234  -7.5233  -7.5227  -7.5214  -7.5194  -7.5190  -7.5164
    -7.5161  -7.5157  -7.5148  -7.5119  -7.5110  -7.5105  -7.5082  -7.5063
    -7.5056  -7.5027  -7.5023  -7.4987  -7.4949  -7.4895  -7.4883  -7.4877
    -7.4857  -7.4852  -7.4841  -7.4832  -7.4825  -7.4798  -7.4791  -7.4783
    -7.4777  -7.4758  -7.4755  -7.4715  -7.4696  -7.4687  -7.4681  -7.4675
    -7.4670  -7.4662  -7.4659  -7.4647  -7.4638  -7.4632  -7.4631  -7.4626
    -7.4622  -7.4617  -7.4610  -7.4605  -7.4594  -7.4583  -7.4581  -7.4574
    -7.4571  -7.4570  -7.4561  -7.4552  -7.4546  -7.4541  -7.4531  -7.4528
    -7.4522  -7.4516  -7.4512  -7.4508  -7.4507  -7.4503  -7.4490  -7.4486
    -7.4483  -7.4475  -7.4474  -7.4472  -7.4469  -7.4465  -7.4459  -7.4455
    -7.4449  -7.4444  -7.4440  -7.4437  -7.4432  -7.4427  -7.4423  -7.4420
    -7.4417  -7.4407  -7.4403  -7.4398  -7.4397  -7.4395  -7.4390  -7.4387
    -7.4383  -7.4378  -7.4372  -7.4368  -7.4365  -7.4362  -7.4357  -7.4355
    -7.4350  -7.4344  -7.4341  -7.4337  -7.4330  -7.4328  -7.4322  -7.4313
    -7.4310  -7.4306  -7.4301  -7.4298  -7.4295  -7.4289  -7.4286  -7.4282
    -7.4276  -7.4270  -7.4268  -7.4261  -7.4259  -7.4254  -7.4249  -7.4245
    -7.4240  -7.4233  -7.4231  -7.4230  -7.4224  -7.4218  -7.4215  -7.4209
    -7.4206  -7.4201  -7.4196  -7.4190  -7.4182  -7.4179  -7.4174  -7.4173
    -7.4168  -7.4166  -7.4162  -7.4154  -7.4154  -7.4149  -7.4145  -7.4140
    -7.4137  -7.4133  -7.4132  -7.4126  -7.4124  -7.4121  -7.4120  -7.4112
    -7.4112  -7.4107  -7.4106  -7.4102  -7.4100  -7.4090  -7.4089  -7.4087
    -7.4086  -7.4083  -7.4077  -7.4074  -7.4070  -7.4069  -7.4064  -7.4059
    -7.4057  -7.4053  -7.4049  -7.4047  -7.4044  -7.4038  -7.4036  -7.4035
    -7.4029  -7.4025  -7.4023  -7.4021  -7.4015  -7.4013  -7.4012  -7.4007
    -7.4005  -7.4001  -7.4000  -7.3994  -7.3992  -7.3990  -7.3988  -7.3984
    -7.3980  -7.3976  -7.3972  -7.3969  -7.3968  -7.3963  -7.3957  -7.3954
    -7.3951  -7.3945  -7.3943  -7.3941  -7.3934  -7.3932  -7.3928  -7.3924
    -7.3923  -7.3915  -7.3913  -7.3912  -7.3907  -7.3902  -7.3901  -7.3894
    -7.3891  -7.3889  -7.3885  -7.3883  -7.3879  -7.3876  -7.3870  -7.3865
    -7.3861  -7.3859  -7.3854  -7.3853  -7.3849  -7.3848  -7.3844  -7.3842
    -7.3839  -7.3835  -7.3830  -7.3828  -7.3827  -7.3825  -7.3822  -7.3816
    -7.3813  -7.3808  -7.3807  -7.3806  -7.3803  -7.3802  -7.3796  -7.3792
    -7.3788  -7.3782  -7.3781  -7.3778  -7.3775  -7.3772  -7.3771  -7.3764
    -7.3763  -7.3761  -7.3755  -7.3754  -7.3751  -7.3746  -7.3743  -7.3741
    -7.3739  -7.3734  -7.3731  -7.3728  -7.3723  -7.3720  -7.3718  -7.3716
    -7.3713  -7.3710  -7.3708  -7.3705  -7.3700  -7.3697  -7.3695  -7.3691
    -7.3688  -7.3688  -7.3685  -7.3682  -7.3679  -7.3677  -7.3675  -7.3673
    -7.3666  -7.3663  -7.3661  -7.3659  -7.3654  -7.3652  -7.3651  -7.3650
    -7.3645  -7.3642  -7.3636  -7.3633  -7.3630  -7.3628  -7.3620  -7.3618
    -7.3616  -7.3615  -7.3612  -7.3603  -7.3601  -7.3600  -7.3596  -7.3596
    -7.3592  -7.3589  -7.3585  -7.3582  -7.3581  -7.3577  -7.3572  -7.3569
    -7.3565  -7.3562  -7.3559  -7.3558  -7.3557  -7.3553  -7.3551  -7.3545
    -7.3543  -7.3539  -7.3537  -7.3535  -7.3530  -7.3529  -7.3527  -7.3524
    -7.3518  -7.3515  -7.3510  -7.3505  -7.3503  -7.3500  -7.3499  -7.3495
    -7.3491  -7.3487  -7.3483  -7.3481  -7.3475  -7.3473  -7.3470  -7.3463
    -7.3462  -7.3460  -7.3456  -7.3451  -7.3451  -7.3450  -7.3446  -7.3443
    -7.3440  -7.3437  -7.3436  -7.3429  -7.3428  -7.3422  -7.3419  -7.3417
    -7.3413  -7.3409  -7.3407  -7.3405  -7.3399  -7.3396  -7.3395  -7.3390
    -7.3388  -7.3386  -7.3383  -7.3381  -7.3378  -7.3376  -7.3372  -7.3370
    -7.3369  -7.3361  -7.3360  -7.3359  -7.3356  -7.3351  -7.3345  -7.3344
    -7.3340  -7.3335  -7.3332  -7.3332  -7.3328  -7.3325  -7.3322  -7.3315
    -7.3311  -7.3307  -7.3306  -7.3303  -7.3299  -7.3294  -7.3292  -7.3286
    -7.3283  -7.3280  -7.3277  -7.3274  -7.3274  -7.3270  -7.3264  -7.3260
    -7.3256  -7.3255  -7.3251  -7.3249  -7.3245  -7.3243  -7.3238  -7.3233
    -7.3229  -7.3225  -7.3223  -7.3220  -7.3214  -7.3213  -7.3209  -7.3206
    -7.3204  -7.3197  -7.3195  -7.3193  -7.3190  -7.3187  -7.3186  -7.3184
    -7.3180  -7.3177  -7.3174  -7.3162  -7.3158  -7.3150  -7.3147  -7.3145
    -7.3144  -7.3138  -7.3137  -7.3125  -7.3122  -7.3120  -7.3117  -7.3113
    -7.3111  -7.3108  -7.3102  -7.3093  -7.3089  -7.3086  -7.3080  -7.3074
    -7.3067  -7.3065  -7.3059  -7.3051  -7.3044  -7.3039  -7.3031  -7.3027
    -7.3020  -7.3018  -7.3014  -7.3010  -7.3004  -7.3000  -7.2993  -7.2992
    -7.2986  -7.2983  -7.2974  -7.2969  -7.2969  -7.2966  -7.2961  -7.2954
    -7.2949  -7.2945  -7.2938  -7.2938  -7.2932  -7.2925  -7.2924  -7.2913
    -7.2911  -7.2910  -7.2909  -7.2893  -7.2886  -7.2884  -7.2876  -7.2873
    -7.2871  -7.2857  -7.2855  -7.2840  -7.2838  -7.2823  -7.2813  -7.2791
    -7.2781  -7.2773  -7.2765  -7.2757  -7.2748  -7.2734  -7.2719  -7.2702
    -7.2687  -7.2666  -7.2654  -7.2651  -7.2563  -7.2548  -7.2539  -7.2504
    -3.5829  -3.4424  -3.3460  -3.2893  -3.2874  -3.2482  -3.2411  -3.1880
    -3.1434  -3.1242  -3.0897  -3.0784  -3.0599  -3.0280  -2.9972  -2.9427
    -2.8957  -2.8545  -2.8234  -2.8068  -2.7959  -2.7497  -2.6842  -2.6658
    -2.6530  -2.6179  -2.5202  -2.4855  -2.4757  -2.4430  -2.3825  -2.3622
    -2.3441  -2.2859  -2.2546  -2.2188  -2.2042  -2.1757  -2.1353  -2.1150
    -2.1102  -2.0705  -2.0531  -2.0296  -1.9967  -1.9679  -1.9595  -1.9502
    -1.9163  -1.9050  -1.8636  -1.8535  -1.8115  -1.8066  -1.7858  -1.7816
    -1.7459  -1.7243  -1.6974  -1.6889  -1.6541  -1.6352  -1.6033  -1.5848
    -1.5680  -1.5626  -1.5283  -1.5035  -1.4992  -1.4828  -1.4562  -1.4258
    -1.4109  -1.4039  -1.3871  -1.3649  -1.3495  -1.3327  -1.3227  -1.3049
    -1.2889  -1.2724  -1.2651  -1.2549  -1.2395  -1.2273  -1.2215  -1.2054
    -1.1898  -1.1693  -1.1365  -1.1340  -1.1214  -1.1114  -1.1066  -1.1010
    -1.0710  -1.0659  -1.0400  -1.0154  -1.0003  -0.9865  -0.9784  -0.9642
    -0.8854  -0.8699  -0.8110  -0.8033   0.3859   0.4091   0.4377   0.4480
     0.6796   0.6878   0.6988   0.7108   0.7113   0.7195   0.7249   0.7312
     0.7351   0.7482   0.7550   0.7627   0.7633   0.7734   0.7795   0.7826
     0.7917   0.7938   0.7971   0.8075   0.8114   0.8136   0.8196   0.8240
     0.8323   0.8380   0.8464   0.8491   0.8535   0.8606   0.8676   0.8757
     0.8781   0.8873   0.8945   0.9006   0.9153   0.9214   0.9287   0.9309
     0.9460   0.9542   0.9554   0.9653   0.9666   0.9732   0.9800   0.9824
     0.9870   0.9967   0.9994   1.0056   1.0071   1.0132   1.0210   1.0298
     1.5497   1.5812   1.5935   1.6188   1.6392   1.6638   1.6766   1.7085
     1.7200   1.7352   1.7547   1.7685   1.8328   1.8409   1.8715   1.8804
     1.9112   1.9198   1.9297   1.9456   1.9509   1.9619   1.9645   1.9825
     1.9848   1.9920   2.0057   2.0119   2.7635   2.8055   2.8236   2.8380
     2.8928   2.9116   2.9460   2.9508   3.3348   3.3475   3.3883   3.3982
     3.4035   3.4099   3.4172   3.4276   3.4459   3.4561   3.4602   3.4655
     3.4982   3.5001   3.5204   3.5370   3.6006   3.6168   3.6201   3.6263
     3.6322   3.6414   3.6531   3.6650   3.6699   3.6803   3.6866   3.6887
     3.6973   3.7041   3.7146   3.7159   3.7811   3.7904   3.8029   3.8073
     3.8237   3.8630   3.8657   3.8803   3.8845   3.8930   3.9006   3.9079
     3.9171   3.9201   3.9282   3.9359   3.9396   3.9444   3.9556   3.9662
     3.9665   3.9808   3.9945   4.0102   4.1985   4.2444   4.2701   4.3080
     4.3125   4.3241   4.3317   4.3513   4.3742   4.3927   4.4153   4.4255
     4.4288   4.4466   4.4546   4.4656   4.4674   4.4763   4.4908   4.4956
     4.5072   4.5127   4.5151   4.5224   4.5345   4.5354   4.5484   4.5579
     4.5711   4.5766   4.5916   4.6186   4.6324   4.6382   4.6458   4.6578
     4.6645   4.6903   4.6910   4.7076   4.7242   4.7530   4.7581   4.7735
     4.7928   4.8087   4.8121   4.8223   4.8282   4.8369   4.8459   4.8511
     4.8594   4.8679   4.8744   4.8828   4.8993   4.9004   4.9095   4.9165
     4.9357   4.9491   4.9517   4.9621   4.9745   4.9872   4.9915   4.9981
     5.0073   5.0216   5.0370   5.0401   5.0524   5.0676   5.0733   5.0871
     5.0949   5.1029   5.1054   5.1106   5.1222   5.1259   5.1459   5.1502
     5.1543   5.1663   5.1732   5.1771   5.1915   5.2058   5.2472   5.2705
     5.2812   5.3021   5.3092   5.3270   5.3345   5.3450   5.3542   5.3563
     5.3625   5.3829   5.3903   5.4078   5.4124   5.4211   5.4287   5.4335
     5.4478   5.4616   5.4800   5.5054   5.5637   5.5873   5.6046   5.6101
     5.6258   5.6438   5.6689   5.6851   5.7221   5.7289   5.7405   5.7576
     5.7711   5.7834   5.7906   5.8171   5.8259   5.8370   5.8543   5.8609
     5.8717   5.8782   5.8872   5.9007   5.9112   5.9161   5.9291   5.9378
     5.9446   5.9525   5.9560   5.9724   5.9951   6.0041   6.0213   6.0387
     6.0699   6.0840   6.0897   6.1049   6.1260   6.1333   6.1470   6.1688
     6.1761   6.1848   6.2007   6.2206   6.2283   6.2331   6.2558   6.2650
     6.3613   6.3692   6.4363   6.4377   6.7779   6.7960   6.8332   6.8725
     8.2649   8.2677   8.3334   8.3871   8.3973   8.4281   8.4466   8.4523
     8.4757   8.5000   8.5478   8.5727   8.6893   8.7213   8.7471   8.7531
     8.7967   8.8136   8.8437   8.8757   8.9408   8.9593   8.9929   8.9990
     9.0137   9.0206   9.0302   9.0326   9.0459   9.0656   9.0752   9.0815
     9.1050   9.1137   9.1260   9.1337   9.1401   9.1505   9.1561   9.1707
     9.1768   9.1868   9.1931   9.2014   9.2177   9.2282   9.2375   9.2458
     9.2535   9.2546   9.2593   9.2758   9.2896   9.2977   9.3061   9.3203
     9.3330   9.3605   9.3721   9.3787   9.3913   9.4105   9.4206   9.4324
     9.4417   9.4453   9.4538   9.4605   9.4663   9.4779   9.4835   9.4997
     9.5084   9.5130   9.5180   9.5240   9.5366   9.5393   9.5455   9.5536
     9.5582   9.5609   9.5715   9.5885   9.5922   9.6022   9.6106   9.6152
     9.6240   9.6384   9.6455   9.6509   9.6564   9.6617   9.6637   9.6717
     9.6794   9.6833   9.7000   9.7023   9.7126   9.7259   9.7280   9.7349
     9.7542   9.7551   9.7682   9.7875  10.1078  10.1273  10.1356  10.1440
    10.1608  10.1749  10.1843  10.2046  10.2078  10.2252  10.2532  10.2681
    10.3128  10.3358  10.3578  10.3712  10.3837  10.3985  10.4186  10.4284
    10.4473  10.4678  10.4753  10.4852  10.4975  10.5046  10.5144  10.5194
    10.6565  10.6650  10.6760  10.6945  10.7084  10.7139  10.7257  10.7304
    10.7529  10.7678  10.7734  10.7973  10.8183  10.8342  10.8515  10.8555
    10.9713  10.9747  10.9799  11.0042  11.0184  11.0207  11.0290  11.0396
    11.0463  11.0513  11.0590  11.0665  11.0707  11.0783  11.0899  11.1084
    11.1328  11.1521  11.1635  11.1695  11.1823  11.1963  11.2041  11.2128
    11.2147  11.2166  11.2271  11.2277  11.2430  11.2466  11.2604  11.2658
    11.2744  11.2771  11.2878  11.2962  11.2995  11.3034  11.3080  11.3197
    11.3294  11.3319  11.3353  11.3435  11.3495  11.3557  11.3686  11.3694
    11.3740  11.3792  11.3811  11.4022  11.4054  11.4126  11.4151  11.4313
    11.4494  11.4642  11.4759  11.4978  11.5832  11.5982  11.6036  11.6179
    11.6290  11.6321  11.6424  11.6536  11.6654  11.6789  11.6958  11.7169
    11.7242  11.7366  11.7429  11.7460  11.7537  11.7589  11.7721  11.7812
    11.7928  11.8042  11.8083  11.8285  11.8409  11.8527  11.8602  11.8643
    11.8742  11.8851  11.8996  11.9038  11.9346  11.9425  11.9483  11.9728
    12.0103  12.0238  12.0326  12.0386  12.0526  12.0560  12.0705  12.0730
    12.0838  12.0880  12.0929  12.1053  12.1083  12.1213  12.1356  12.1405
    12.1439  12.1501  12.1580  12.1645  12.1756  12.1839  12.1874  12.1932
    12.2081  12.2151  12.2342  12.2386  12.2776  12.3063  12.3109  12.3219
    12.3254  12.3481  12.3621  12.3769  12.3908  12.4006  12.4225  12.4314
    12.4647  12.4735  12.4881  12.4894  12.4964  12.5040  12.5227  12.5289
    12.5367  12.5406  12.5514  12.5653  12.5742  12.5765  12.5820  12.5869
    12.5920  12.5985  12.6048  12.6115  12.6155  12.6206  12.6294  12.6353
    12.6405  12.6451  12.6523  12.6603  12.6686  12.6766  12.6812  12.6895
    12.6979  12.7112  12.7178  12.7238  12.7343  12.7425  12.7566  12.7613
    12.7643  12.7667  12.7759  12.7887  12.7988  12.8019  12.8165  12.8237
    12.8252  12.8477  12.8491  12.8539  12.8607  12.8719  12.8828  12.8852
    12.8910  12.8974  12.9286  12.9363  12.9496  12.9543  12.9690  12.9856
    13.2996  13.3123  13.3136  13.3316  13.3457  13.3482  13.3666  13.3835
    13.3974  13.4052  13.4266  13.4479  13.4976  13.5104  13.5277  13.5497
    13.5595  13.5858  13.5943  13.6096  13.6240  13.6280  13.6401  13.6588
    13.6664  13.6725  13.6748  13.6824  13.7004  13.7228  13.7280  13.7379
    13.8558  13.8659  13.8843  13.8957  13.9083  13.9361  13.9487  13.9554
    13.9684  13.9770  13.9867  13.9957  14.0039  14.0086  14.0242  14.0280
    14.0397  14.0472  14.0604  14.0635  14.0681  14.0783  14.0824  14.0904
    14.0987  14.1127  14.1137  14.1301  14.1347  14.1408  14.1652  14.1987
    14.2763  14.2937  14.3333  14.3396  14.3447  14.3553  14.3610  14.3716
    14.3799  14.3889  14.4006  14.4127  14.4209  14.4271  14.4307  14.4388
    14.4541  14.4645  14.5034  14.5357  14.5528  14.5756  14.5821  14.6093
    14.6778  14.6919  14.6996  14.7021  14.7345  14.7728  14.7774  14.7839
    14.7925  14.8070  14.8170  14.8386  14.8491  14.8549  14.8678  14.8751
    14.8856  14.8920  14.8983  14.9114  14.9209  14.9243  14.9296  14.9351
    14.9514  14.9587  14.9662  14.9786  14.9909  14.9994  15.0043  15.0135
    15.0146  15.0226  15.0336  15.0383  15.0427  15.0493  15.0604  15.0640
    15.0766  15.0815  15.0912  15.1024  15.1113  15.1132  15.1188  15.1330
    15.1372  15.1577  15.1622  15.1864  15.2085  15.2204  15.2353  15.2418
    15.2550  15.2614  15.2712  15.2832  15.2901  15.2974  15.3008  15.3128
    15.3231  15.3281  15.3372  15.3483  15.3491  15.3619  15.3688  15.3771
    15.3854  15.3933  15.3965  15.4051  15.4094  15.4104  15.4220  15.4259
    15.4342  15.4356  15.4412  15.4577  15.4638  15.4652  15.4866  15.4922
    15.5047  15.5252  15.5556  15.5600  15.5683  15.5769  15.5853  15.5951
    15.6444  15.6537  15.6572  15.6712  15.6730  15.6781  15.6858  15.6915
    15.6939  15.7062  15.7112  15.7130  15.7246  15.7288  15.7321  15.7394
    15.7456  15.7487  15.7665  15.7729  15.7857  15.7950  15.8053  15.8062
    15.8109  15.8193  15.8300  15.8367  15.8548  15.8561  15.8696  15.8773
    15.9010  15.9501  15.9589  15.9888  16.0136  16.0315  16.0550  16.0584
    16.1010  16.1082  16.1160  16.1532  16.1603  16.1643  16.1704  16.1842
    16.1921  16.1985  16.2082  16.2137  16.2198  16.2252  16.2365  16.2458
    16.2525  16.2554  16.2685  16.2725  16.2842  16.2850  16.2863  16.2917
    16.2988  16.3015  16.3125  16.3201  16.3269  16.3327  16.3415  16.3621
    16.5164  16.5298  16.5697  16.5797  16.5860  16.5965  16.6061  16.6221
    16.6369  16.6465  16.6659  16.6757  16.7065  16.7305  16.7634  16.7702
    16.8069  16.8300  16.8404  16.8457  16.8531  16.8553  16.8729  16.8785
    16.8843  16.8941  16.9062  16.9095  16.9135  16.9315  16.9380  16.9439
    16.9501  16.9574  16.9638  16.9703  16.9784  16.9839  16.9957  17.0047

     highest occupied, lowest unoccupied level (ev):     6.9404    7.1204

!    total energy              =  -34815.20348233 Ry
     estimated scf accuracy    <       0.00000421 Ry

     The total energy is the sum of the following terms:
     one-electron contribution =  -16870.51688198 Ry
     hartree contribution      =   10165.90106179 Ry
     xc contribution           =   -9298.80042614 Ry
     ewald contribution        =  -18814.02374131 Ry
     Hubbard energy            =       2.23650531 Ry

     convergence has been achieved in  12 iterations

     Writing all to output data dir ./tmp_In1.0Ga0.0As0.25Sb0.75_cube_3x3x3.3/In1.0Ga0.0As0.25Sb0.75_cube_3x3x3.3.save/ :
     XML data file, charge density, pseudopotentials, collected wavefunctions

     init_run     :    346.24s CPU    349.76s WALL (       1 calls)
     electrons    :  13960.73s CPU  13997.29s WALL (       1 calls)

     Called by init_run:
     wfcinit      :    336.38s CPU    339.66s WALL (       1 calls)
     potinit      :      0.24s CPU      0.32s WALL (       1 calls)
     hinit0       :      0.96s CPU      1.00s WALL (       1 calls)

     Called by electrons:
     c_bands      :  13597.22s CPU  13632.57s WALL (      13 calls)
     sum_band     :    358.96s CPU    359.43s WALL (      13 calls)
     v_of_rho     :      2.77s CPU      2.94s WALL (      13 calls)
     mix_rho      :      0.89s CPU      0.92s WALL (      13 calls)

     Called by c_bands:
     init_us_2    :     49.45s CPU     49.87s WALL (      56 calls)
     cegterg      :  13053.57s CPU  13086.11s WALL (      26 calls)

     Called by *egterg:
     cdiaghg      :   1565.64s CPU   1566.53s WALL (     238 calls)
     h_psi        :   7509.84s CPU   7528.96s WALL (     242 calls)
     g_psi        :      8.22s CPU      8.22s WALL (     214 calls)

     Called by h_psi:
     h_psi:calbec :   1282.53s CPU   1282.64s WALL (     242 calls)
     vloc_psi     :    945.17s CPU    946.90s WALL (     242 calls)
     add_vuspsi   :   1242.61s CPU   1250.12s WALL (     242 calls)
     vhpsi        :   4024.64s CPU   4024.95s WALL (     242 calls)

     General routines
     calbec       :   1617.38s CPU   1617.53s WALL (     512 calls)
     fft          :      2.27s CPU      2.41s WALL (     131 calls)
     ffts         :      0.20s CPU      0.20s WALL (      13 calls)
     fftw         :    967.33s CPU    969.16s WALL (  330086 calls)

     Parallel routines

     Hubbard U routines
     new_ns       :    100.24s CPU    100.25s WALL (      13 calls)
     vhpsi        :   4024.64s CPU   4024.95s WALL (     242 calls)

     PWSCF        :      3h59m CPU      4h 2m WALL


   This run was terminated on:  18:46:48  25Mar2026            

=------------------------------------------------------------------------------=
   JOB DONE.
=------------------------------------------------------------------------------=
