
     Program PWSCF v.7.3.1 starts on 13Jun2025 at  1:10:41 

     This program is part of the open-source Quantum ESPRESSO suite
     for quantum simulation of materials; please cite
         "P. Giannozzi et al., J. Phys.:Condens. Matter 21 395502 (2009);
         "P. Giannozzi et al., J. Phys.:Condens. Matter 29 465901 (2017);
         "P. Giannozzi et al., J. Chem. Phys. 152 154105 (2020);
          URL http://www.quantum-espresso.org", 
     in publications or presentations arising from this work. More details at
     http://www.quantum-espresso.org/quote

     Parallel version (MPI), running on   640 processors

     MPI processes distributed on     5 nodes
     427784 MiB available memory on the printing compute node when the environment starts

     Reading input from In0.0Ga1.0As0.25Sb0.75_cube_3x3x3.4.scf.in
Warning: card &CELL ignored
Warning: card   CELL_DOFREE = 'ALL', ignored
Warning: card / ignored

     Current dimensions of program PWSCF are:
     Max number of different atomic species (ntypx) = 10
     Max number of k-points (npk) =  40000
     Max angular momentum in pseudopotentials (lmaxx) =  4

     K-points division:     npool     =       8
     R & G space division:  proc/nbgrp/npool/nimage =      80
     Subspace diagonalization in iterative solution of the eigenvalue problem:
     one sub-group per band group will be used
     custom distributed-memory algorithm (size of sub-group:  8*  8 procs)


     Parallelization info
     --------------------
     sticks:   dense  smooth     PW     G-vecs:    dense   smooth      PW
     Min         553     553    142                87554    87554   11426
     Max         555     555    143                87558    87558   11431
     Sum       44261   44261  11417              7004513  7004513  914193

     Using Slab Decomposition



     bravais-lattice index     =            1
     lattice parameter (alat)  =      34.0410  a.u.
     unit-cell volume          =   39446.1918 (a.u.)^3
     number of atoms/cell      =          216
     number of atomic types    =            4
     number of electrons       =      3024.00
     number of Kohn-Sham states=         2160
     kinetic-energy cutoff     =     120.0000  Ry
     charge density cutoff     =     480.0000  Ry
     scf convergence threshold =      1.0E-05
     mixing beta               =       0.6500
     number of iterations used =            8  plain     mixing
     Exchange-correlation= PBE
                           (   1   4   3   4   0   0   0)
     Hubbard projectors: atomic
     Hubbard parameters of DFT+U (Dudarev formulation) in eV:
     U(As-4p) =  5.8400
     U(Ga-4p) = -2.3350
     U(In-5p) = -1.0575
     U(Sb-5p) =  4.8900

     Internal variables: lda_plus_u =T, lda_plus_u_kind = 0

     celldm(1)=  34.040952  celldm(2)=   0.000000  celldm(3)=   0.000000
     celldm(4)=   0.000000  celldm(5)=   0.000000  celldm(6)=   0.000000

     crystal axes: (cart. coord. in units of alat)
               a(1) = (   1.000000   0.000000   0.000000 )  
               a(2) = (   0.000000   1.000000   0.000000 )  
               a(3) = (   0.000000   0.000000   1.000000 )  

     reciprocal axes: (cart. coord. in units 2 pi/alat)
               b(1) = (  1.000000  0.000000  0.000000 )  
               b(2) = (  0.000000  1.000000  0.000000 )  
               b(3) = (  0.000000  0.000000  1.000000 )  


     PseudoPot. # 1 for As read from file:
     /work/i254/i254/gentles/data/pseudos/As.pbe.NC-SR.standard.v0.5.UPF
     MD5 check sum: bfe1a874457ce592347346129958e7cf
     Pseudo is Norm-conserving + core correction, Zval = 15.0
     Generated using ONCVPSP code by D. R. Hamann
     Using radial grid of 1358 points,  6 beta functions with: 
                l(1) =   0
                l(2) =   0
                l(3) =   1
                l(4) =   1
                l(5) =   2
                l(6) =   2

     PseudoPot. # 2 for Ga read from file:
     /work/i254/i254/gentles/data/pseudos/Ga.pbe.NC-SR.standard.v0.5.UPF
     MD5 check sum: 2bb81bf6f0a8d9832cf3329850435ecf
     Pseudo is Norm-conserving + core correction, Zval = 13.0
     Generated using ONCVPSP code by D. R. Hamann
     Using radial grid of 1902 points,  6 beta functions with: 
                l(1) =   0
                l(2) =   0
                l(3) =   1
                l(4) =   1
                l(5) =   2
                l(6) =   2

     PseudoPot. # 3 for In read from file:
     /work/i254/i254/gentles/data/pseudos/In.pbe.NC-SR.standard.v0.5.UPF
     MD5 check sum: 835f4bf908c982ff75c88e16816a8d7f
     Pseudo is Norm-conserving + core correction, Zval = 13.0
     Generated using ONCVPSP code by D. R. Hamann
     Using radial grid of 1964 points,  6 beta functions with: 
                l(1) =   0
                l(2) =   0
                l(3) =   1
                l(4) =   1
                l(5) =   2
                l(6) =   2

     PseudoPot. # 4 for Sb read from file:
     /work/i254/i254/gentles/data/pseudos/Sb.pbe.NC-SR.standard.v0.5.UPF
     MD5 check sum: 127f69b6101c45666faeae1b5d611565
     Pseudo is Norm-conserving + core correction, Zval = 15.0
     Generated using ONCVPSP code by D. R. Hamann
     Using radial grid of 1434 points,  6 beta functions with: 
                l(1) =   0
                l(2) =   0
                l(3) =   1
                l(4) =   1
                l(5) =   2
                l(6) =   2

     atomic species   valence    mass     pseudopotential
     As               15.00    74.92160     As( 1.00)
     Ga               13.00    69.72300     Ga( 1.00)
     In               13.00   114.81800     In( 1.00)
     Sb               15.00   121.76000     Sb( 1.00)

     No symmetry found



   Cartesian axes

     site n.     atom                  positions (alat units)
         1        Ga     tau(   1) = (  -0.0054980  -0.0029550   0.0020840  )
         2        Ga     tau(   2) = (  -0.0006600   0.1671660   0.1638520  )
         3        Ga     tau(   3) = (   0.1673020  -0.0013750   0.1664730  )
         4        Ga     tau(   4) = (   0.1679770   0.1709340   0.0028350  )
         5        Sb     tau(   5) = (   0.0834200   0.0819700   0.0819230  )
         6        Sb     tau(   6) = (   0.0829090   0.2504760   0.2487600  )
         7        Sb     tau(   7) = (   0.2496550   0.0851670   0.2483320  )
         8        As     tau(   8) = (   0.2509850   0.2482500   0.0803880  )
         9        Ga     tau(   9) = (   0.0043650   0.0027060   0.3353380  )
        10        Ga     tau(  10) = (   0.0047330   0.1634040   0.4952960  )
        11        Ga     tau(  11) = (   0.1572070  -0.0013100   0.5010510  )
        12        Ga     tau(  12) = (   0.1611570   0.1616480   0.3372640  )
        13        As     tau(  13) = (   0.0826010   0.0809720   0.4172040  )
        14        Sb     tau(  14) = (   0.0821460   0.2472110   0.5885260  )
        15        Sb     tau(  15) = (   0.2454120   0.0830880   0.5843050  )
        16        Sb     tau(  16) = (   0.2472860   0.2489710   0.4161680  )
        17        Ga     tau(  17) = (   0.0066470   0.0019290   0.6680540  )
        18        Ga     tau(  18) = (  -0.0031040   0.1651260   0.8260740  )
        19        Ga     tau(  19) = (   0.1602630   0.0074760   0.8334220  )
        20        Ga     tau(  20) = (   0.1666030   0.1662520   0.6773420  )
        21        As     tau(  21) = (   0.0816060   0.0850790   0.7508180  )
        22        Sb     tau(  22) = (   0.0814980   0.2488680   0.9129300  )
        23        Sb     tau(  23) = (   0.2506530   0.0871910   0.9178780  )
        24        As     tau(  24) = (   0.2493490   0.2485640   0.7532200  )
        25        Ga     tau(  25) = (  -0.0043300   0.3375870  -0.0080080  )
        26        Ga     tau(  26) = (  -0.0078790   0.4992780   0.1664370  )
        27        Ga     tau(  27) = (   0.1709060   0.3282340   0.1592330  )
        28        Ga     tau(  28) = (   0.1654420   0.5103380   0.0005870  )
        29        Sb     tau(  29) = (   0.0815430   0.4181090   0.0810090  )
        30        Sb     tau(  30) = (   0.0825300   0.5852080   0.2452170  )
        31        Sb     tau(  31) = (   0.2498820   0.4163820   0.2448100  )
        32        As     tau(  32) = (   0.2469570   0.5886130   0.0821370  )
        33        Ga     tau(  33) = (  -0.0052690   0.3391850   0.3265990  )
        34        Ga     tau(  34) = (  -0.0023960   0.4996190   0.5028400  )
        35        Ga     tau(  35) = (   0.1635510   0.3323010   0.5016070  )
        36        Ga     tau(  36) = (   0.1645800   0.4990040   0.3302060  )
        37        Sb     tau(  37) = (   0.0802200   0.4167630   0.4159970  )
        38        Sb     tau(  38) = (   0.0820550   0.5845350   0.5853580  )
        39        Sb     tau(  39) = (   0.2485450   0.4152150   0.5850170  )
        40        Sb     tau(  40) = (   0.2492180   0.5833530   0.4136440  )
        41        Ga     tau(  41) = (  -0.0071270   0.3282640   0.6731390  )
        42        Ga     tau(  42) = (   0.0000380   0.5003440   0.8450340  )
        43        Ga     tau(  43) = (   0.1697070   0.3298630   0.8301820  )
        44        Ga     tau(  44) = (   0.1635870   0.4984820   0.6682650  )
        45        Sb     tau(  45) = (   0.0795920   0.4155190   0.7537600  )
        46        As     tau(  46) = (   0.0809810   0.5849840   0.9204990  )
        47        Sb     tau(  47) = (   0.2479910   0.4160270   0.9200460  )
        48        Sb     tau(  48) = (   0.2449720   0.5834260   0.7537220  )
        49        Ga     tau(  49) = (   0.0039790   0.6624410   0.0053850  )
        50        Ga     tau(  50) = (  -0.0014380   0.8332190   0.1558330  )
        51        Ga     tau(  51) = (   0.1680080   0.6718120   0.1610920  )
        52        Ga     tau(  52) = (   0.1609210   0.8297920   0.0034060  )
        53        As     tau(  53) = (   0.0820350   0.7490270   0.0823050  )
        54        Sb     tau(  54) = (   0.0818790   0.9140260   0.2467900  )
        55        As     tau(  55) = (   0.2494440   0.7487510   0.2436560  )
        56        Sb     tau(  56) = (   0.2507410   0.9138270   0.0832250  )
        57        Ga     tau(  57) = (  -0.0000180   0.6684780   0.3322110  )
        58        Ga     tau(  58) = (   0.0040030   0.8396820   0.5067540  )
        59        Ga     tau(  59) = (   0.1658640   0.6661040   0.4991830  )
        60        Ga     tau(  60) = (   0.1704450   0.8275730   0.3244730  )
        61        Sb     tau(  61) = (   0.0838730   0.7529170   0.4168500  )
        62        As     tau(  62) = (   0.0820770   0.9189730   0.5869140  )
        63        Sb     tau(  63) = (   0.2468610   0.7520580   0.5845630  )
        64        Sb     tau(  64) = (   0.2456390   0.9167800   0.4146460  )
        65        Ga     tau(  65) = (   0.0033350   0.6696960   0.6733660  )
        66        Ga     tau(  66) = (   0.0039480   0.8275710   0.8306280  )
        67        Ga     tau(  67) = (   0.1562120   0.6662570   0.8356350  )
        68        Ga     tau(  68) = (   0.1574800   0.8338690   0.6681050  )
        69        As     tau(  69) = (   0.0829630   0.7495000   0.7512300  )
        70        Sb     tau(  70) = (   0.0811010   0.9163620   0.9167700  )
        71        Sb     tau(  71) = (   0.2461810   0.7464530   0.9204860  )
        72        Sb     tau(  72) = (   0.2433160   0.9182330   0.7516230  )
        73        Ga     tau(  73) = (   0.3364560   0.0040790   0.0045780  )
        74        Ga     tau(  74) = (   0.3318350   0.1670540   0.1576010  )
        75        Ga     tau(  75) = (   0.4991680   0.0094570   0.1636160  )
        76        Ga     tau(  76) = (   0.4907440   0.1660080  -0.0005420  )
        77        As     tau(  77) = (   0.4148960   0.0862030   0.0826620  )
        78        Sb     tau(  78) = (   0.4180890   0.2467960   0.2459570  )
        79        As     tau(  79) = (   0.5839470   0.0835280   0.2445980  )
        80        Sb     tau(  80) = (   0.5843960   0.2460560   0.0799360  )
        81        Ga     tau(  81) = (   0.3334120  -0.0007390   0.3316270  )
        82        Ga     tau(  82) = (   0.3328000   0.1659540   0.4996110  )
        83        Ga     tau(  83) = (   0.5012600   0.0004340   0.4982080  )
        84        Ga     tau(  84) = (   0.5076540   0.1630050   0.3264770  )
        85        Sb     tau(  85) = (   0.4189730   0.0841120   0.4134080  )
        86        Sb     tau(  86) = (   0.4152370   0.2492160   0.5863440  )
        87        Sb     tau(  87) = (   0.5854780   0.0848840   0.5828080  )
        88        Sb     tau(  88) = (   0.5866070   0.2492060   0.4172140  )
        89        Ga     tau(  89) = (   0.3310510   0.0001310   0.6680520  )
        90        Ga     tau(  90) = (   0.3329140   0.1748080   0.8348570  )
        91        Ga     tau(  91) = (   0.5026420   0.0000160   0.8361180  )
        92        Ga     tau(  92) = (   0.5021250   0.1662080   0.6689930  )
        93        Sb     tau(  93) = (   0.4156740   0.0847400   0.7533470  )
        94        As     tau(  94) = (   0.4134180   0.2483130   0.9186120  )
        95        Sb     tau(  95) = (   0.5858900   0.0851600   0.9206860  )
        96        Sb     tau(  96) = (   0.5860300   0.2519830   0.7530910  )
        97        Ga     tau(  97) = (   0.3322840   0.3254340  -0.0000590  )
        98        Ga     tau(  98) = (   0.3269730   0.5059760   0.1585790  )
        99        Ga     tau(  99) = (   0.5029030   0.3332670   0.1658200  )
       100        Ga     tau( 100) = (   0.5018310   0.4986450   0.0000410  )
       101        Sb     tau( 101) = (   0.4146850   0.4151610   0.0817890  )
       102        Sb     tau( 102) = (   0.4139840   0.5870590   0.2447380  )
       103        Sb     tau( 103) = (   0.5857610   0.4172570   0.2504670  )
       104        Sb     tau( 104) = (   0.5821570   0.5862710   0.0841790  )
       105        Ga     tau( 105) = (   0.3331780   0.3312330   0.3301560  )
       106        Ga     tau( 106) = (   0.3327060   0.4992820   0.4996940  )
       107        Ga     tau( 107) = (   0.5004810   0.3318720   0.5010180  )
       108        Ga     tau( 108) = (   0.4978960   0.5016690   0.3300470  )
       109        Sb     tau( 109) = (   0.4166540   0.4155640   0.4155060  )
       110        Sb     tau( 110) = (   0.4159240   0.5826440   0.5852740  )
       111        Sb     tau( 111) = (   0.5897770   0.4148840   0.5826130  )
       112        Sb     tau( 112) = (   0.5855440   0.5834400   0.4132910  )
       113        Ga     tau( 113) = (   0.3271240   0.3279140   0.6724090  )
       114        Ga     tau( 114) = (   0.3322370   0.5003850   0.8363780  )
       115        Ga     tau( 115) = (   0.4950690   0.3280230   0.8406420  )
       116        Ga     tau( 116) = (   0.5027720   0.4976790   0.6671270  )
       117        Sb     tau( 117) = (   0.4154110   0.4140260   0.7526610  )
       118        Sb     tau( 118) = (   0.4163070   0.5847200   0.9204870  )
       119        Sb     tau( 119) = (   0.5860420   0.4126750   0.9170230  )
       120        Sb     tau( 120) = (   0.5874530   0.5817670   0.7520450  )
       121        Ga     tau( 121) = (   0.3332610   0.6668310   0.0091000  )
       122        Ga     tau( 122) = (   0.3336730   0.8260500   0.1652610  )
       123        Ga     tau( 123) = (   0.4994650   0.6753770   0.1656370  )
       124        Ga     tau( 124) = (   0.4946450   0.8296250   0.0059630  )
       125        As     tau( 125) = (   0.4152190   0.7490520   0.0856110  )
       126        Sb     tau( 126) = (   0.4181190   0.9161960   0.2453950  )
       127        As     tau( 127) = (   0.5823510   0.7496730   0.2473470  )
       128        Sb     tau( 128) = (   0.5831780   0.9176450   0.0842560  )
       129        Ga     tau( 129) = (   0.3271480   0.6709170   0.3262190  )
       130        Ga     tau( 130) = (   0.3325570   0.8351500   0.4994030  )
       131        Ga     tau( 131) = (   0.5003020   0.6655830   0.4995370  )
       132        Ga     tau( 132) = (   0.5045410   0.8300230   0.3268430  )
       133        Sb     tau( 133) = (   0.4158230   0.7503630   0.4128510  )
       134        Sb     tau( 134) = (   0.4175340   0.9180560   0.5844600  )
       135        Sb     tau( 135) = (   0.5850350   0.7504620   0.5839600  )
       136        Sb     tau( 136) = (   0.5843670   0.9172140   0.4120840  )
       137        Ga     tau( 137) = (   0.3302340   0.6674270   0.6694750  )
       138        Ga     tau( 138) = (   0.3280730   0.8341560   0.8367380  )
       139        Ga     tau( 139) = (   0.5017100   0.6668280   0.8356250  )
       140        Ga     tau( 140) = (   0.5013050   0.8337350   0.6688340  )
       141        Sb     tau( 141) = (   0.4154360   0.7510650   0.7528640  )
       142        Sb     tau( 142) = (   0.4159270   0.9168210   0.9197030  )
       143        Sb     tau( 143) = (   0.5851760   0.7523740   0.9186650  )
       144        Sb     tau( 144) = (   0.5877580   0.9163130   0.7530900  )
       145        Ga     tau( 145) = (   0.6746820  -0.0018980   0.0000370  )
       146        Ga     tau( 146) = (   0.6674750   0.1571670   0.1629990  )
       147        Ga     tau( 147) = (   0.8346020  -0.0009240   0.1560540  )
       148        Ga     tau( 148) = (   0.8251230   0.1681150   0.0002380  )
       149        As     tau( 149) = (   0.7512530   0.0810790   0.0804260  )
       150        Sb     tau( 150) = (   0.7492300   0.2490510   0.2476580  )
       151        Sb     tau( 151) = (   0.9168680   0.0808360   0.2468560  )
       152        Sb     tau( 152) = (   0.9148230   0.2523960   0.0805570  )
       153        Ga     tau( 153) = (   0.6626280   0.0061590   0.3267570  )
       154        Ga     tau( 154) = (   0.6734570   0.1730350   0.5074140  )
       155        Ga     tau( 155) = (   0.8336750   0.0006540   0.5017520  )
       156        Ga     tau( 156) = (   0.8338150   0.1655350   0.3316990  )
       157        Sb     tau( 157) = (   0.7484910   0.0851210   0.4176060  )
       158        As     tau( 158) = (   0.7530480   0.2527540   0.5869110  )
       159        Sb     tau( 159) = (   0.9189990   0.0865460   0.5848790  )
       160        Sb     tau( 160) = (   0.9167620   0.2513350   0.4152710  )
       161        Ga     tau( 161) = (   0.6681170   0.0029430   0.6686110  )
       162        Ga     tau( 162) = (   0.6724930   0.1723590   0.8392850  )
       163        Ga     tau( 163) = (   0.8313040  -0.0040690   0.8375070  )
       164        Ga     tau( 164) = (   0.8357540   0.1763370   0.6682670  )
       165        Sb     tau( 165) = (   0.7532920   0.0869150   0.7521010  )
       166        As     tau( 166) = (   0.7545400   0.2514880   0.9160300  )
       167        Sb     tau( 167) = (   0.9134550   0.0845700   0.9176220  )
       168        As     tau( 168) = (   0.9142470   0.2507600   0.7537540  )
       169        Ga     tau( 169) = (   0.6744460   0.3275820  -0.0040070  )
       170        Ga     tau( 170) = (   0.6676340   0.5003610   0.1638720  )
       171        Ga     tau( 171) = (   0.8371500   0.3374580   0.1700920  )
       172        Ga     tau( 172) = (   0.8437460   0.5002080  -0.0020030  )
       173        Sb     tau( 173) = (   0.7545150   0.4174800   0.0805020  )
       174        Sb     tau( 174) = (   0.7528740   0.5816160   0.2481270  )
       175        As     tau( 175) = (   0.9143550   0.4187180   0.2490780  )
       176        As     tau( 176) = (   0.9208440   0.5802560   0.0807790  )
       177        Ga     tau( 177) = (   0.6715040   0.3366220   0.3372990  )
       178        Ga     tau( 178) = (   0.6734800   0.4970710   0.4943060  )
       179        Ga     tau( 179) = (   0.8264560   0.3319370   0.5005000  )
       180        Ga     tau( 180) = (   0.8327230   0.4910050   0.3334230  )
       181        As     tau( 181) = (   0.7527370   0.4141810   0.4166140  )
       182        Sb     tau( 182) = (   0.7516490   0.5821500   0.5871450  )
       183        Sb     tau( 183) = (   0.9126230   0.4135030   0.5857480  )
       184        Sb     tau( 184) = (   0.9157740   0.5805100   0.4141720  )
       185        Ga     tau( 185) = (   0.6769060   0.3332840   0.6693770  )
       186        Ga     tau( 186) = (   0.6733850   0.4907970   0.8294940  )
       187        Ga     tau( 187) = (   0.8359650   0.3327960   0.8355790  )
       188        Ga     tau( 188) = (   0.8317350   0.4949670   0.6749020  )
       189        As     tau( 189) = (   0.7552090   0.4109630   0.7529650  )
       190        Sb     tau( 190) = (   0.7531490   0.5800150   0.9146600  )
       191        As     tau( 191) = (   0.9160330   0.4170400   0.9152630  )
       192        Sb     tau( 192) = (   0.9178250   0.5833060   0.7554310  )
       193        Ga     tau( 193) = (   0.6689570   0.6649590  -0.0013500  )
       194        Ga     tau( 194) = (   0.6628860   0.8289670   0.1705720  )
       195        Ga     tau( 195) = (   0.8393490   0.6599850   0.1586760  )
       196        Ga     tau( 196) = (   0.8350150   0.8416100  -0.0004690  )
       197        Sb     tau( 197) = (   0.7523440   0.7508700   0.0823420  )
       198        Sb     tau( 198) = (   0.7495830   0.9194310   0.2463530  )
       199        Sb     tau( 199) = (   0.9172350   0.7498970   0.2437740  )
       200        As     tau( 200) = (   0.9159340   0.9171600   0.0803590  )
       201        Ga     tau( 201) = (   0.6639770   0.6705740   0.3252820  )
       202        Ga     tau( 202) = (   0.6681540   0.8350640   0.4984640  )
       203        Ga     tau( 203) = (   0.8348840   0.6652680   0.5000190  )
       204        Ga     tau( 204) = (   0.8352220   0.8353530   0.3305190  )
       205        Sb     tau( 205) = (   0.7505470   0.7500160   0.4137940  )
       206        Sb     tau( 206) = (   0.7507870   0.9161140   0.5862110  )
       207        Sb     tau( 207) = (   0.9182170   0.7504470   0.5859470  )
       208        Sb     tau( 208) = (   0.9193990   0.9182430   0.4178610  )
       209        Ga     tau( 209) = (   0.6716520   0.6719230   0.6727150  )
       210        Ga     tau( 210) = (   0.6761370   0.8348640   0.8373180  )
       211        Ga     tau( 211) = (   0.8300730   0.6717640   0.8316780  )
       212        Ga     tau( 212) = (   0.8305200   0.8294830   0.6722960  )
       213        As     tau( 213) = (   0.7508930   0.7524520   0.7539170  )
       214        As     tau( 214) = (   0.7529420   0.9172820   0.9181920  )
       215        Sb     tau( 215) = (   0.9182020   0.7492810   0.9201250  )
       216        Sb     tau( 216) = (   0.9188960   0.9156690   0.7510910  )

     number of k points=     8
                       cart. coord. in units 2pi/alat
        k(    1) = (   0.0000000   0.0000000   0.0000000), wk =   0.2500000
        k(    2) = (   0.0000000   0.0000000  -0.5000000), wk =   0.2500000
        k(    3) = (   0.0000000  -0.5000000  -0.5000000), wk =   0.2500000
        k(    4) = (  -0.5000000  -0.5000000  -0.5000000), wk =   0.2500000
        k(    5) = (  -0.5000000   0.0000000   0.0000000), wk =   0.2500000
        k(    6) = (   0.0000000  -0.5000000   0.0000000), wk =   0.2500000
        k(    7) = (  -0.5000000   0.0000000   0.5000000), wk =   0.2500000
        k(    8) = (  -0.5000000   0.5000000   0.0000000), wk =   0.2500000

     Dense  grid:  7004513 G-vectors     FFT dimensions: ( 240, 240, 240)

     Estimated max dynamical RAM per process >       2.70 GB

     Estimated total dynamical RAM >    1717.08 GB

     Initial potential from superposition of free atoms

     starting charge    3023.6593, renormalised to    3024.0000

     STARTING HUBBARD OCCUPATIONS:

     =================== HUBBARD OCCUPATIONS ===================
     ------------------------ ATOM    1 ------------------------
     Tr[ns(  1)] =   1.00000
     eigenvalues:
       0.167  0.167  0.167
     eigenvectors (columns):
       1.000  0.000  0.000
       0.000  1.000  0.000
       0.000  0.000  1.000
     occupation matrix ns (before diag.):
       0.167  0.000  0.000
       0.000  0.167  0.000
       0.000  0.000  0.167
     ------------------------ ATOM    2 ------------------------
     Tr[ns(  2)] =   1.00000
     eigenvalues:
       0.167  0.167  0.167
     eigenvectors (columns):
       1.000  0.000  0.000
       0.000  1.000  0.000
       0.000  0.000  1.000
     occupation matrix ns (before diag.):
       0.167  0.000  0.000
       0.000  0.167  0.000
       0.000  0.000  0.167
     ------------------------ ATOM    3 ------------------------
     Tr[ns(  3)] =   1.00000
     eigenvalues:
       0.167  0.167  0.167
     eigenvectors (columns):
       1.000  0.000  0.000
       0.000  1.000  0.000
       0.000  0.000  1.000
     occupation matrix ns (before diag.):
       0.167  0.000  0.000
       0.000  0.167  0.000
       0.000  0.000  0.167
     ------------------------ ATOM    4 ------------------------
     Tr[ns(  4)] =   1.00000
     eigenvalues:
       0.167  0.167  0.167
     eigenvectors (columns):
       1.000  0.000  0.000
       0.000  1.000  0.000
       0.000  0.000  1.000
     occupation matrix ns (before diag.):
       0.167  0.000  0.000
       0.000  0.167  0.000
       0.000  0.000  0.167
     ------------------------ ATOM    5 ------------------------
     Tr[ns(  5)] =   3.00000
     eigenvalues:
       0.500  0.500  0.500
     eigenvectors (columns):
       1.000  0.000  0.000
       0.000  1.000  0.000
       0.000  0.000  1.000
     occupation matrix ns (before diag.):
       0.500  0.000  0.000
       0.000  0.500  0.000
       0.000  0.000  0.500
     ------------------------ ATOM    6 ------------------------
     Tr[ns(  6)] =   3.00000
     eigenvalues:
       0.500  0.500  0.500
     eigenvectors (columns):
       1.000  0.000  0.000
       0.000  1.000  0.000
       0.000  0.000  1.000
     occupation matrix ns (before diag.):
       0.500  0.000  0.000
       0.000  0.500  0.000
       0.000  0.000  0.500
     ------------------------ ATOM    7 ------------------------
     Tr[ns(  7)] =   3.00000
     eigenvalues:
       0.500  0.500  0.500
     eigenvectors (columns):
       1.000  0.000  0.000
       0.000  1.000  0.000
       0.000  0.000  1.000
     occupation matrix ns (before diag.):
       0.500  0.000  0.000
       0.000  0.500  0.000
       0.000  0.000  0.500
     ------------------------ ATOM    8 ------------------------
     Tr[ns(  8)] =   3.00000
     eigenvalues:
       0.500  0.500  0.500
     eigenvectors (columns):
       1.000  0.000  0.000
       0.000  1.000  0.000
       0.000  0.000  1.000
     occupation matrix ns (before diag.):
       0.500  0.000  0.000
       0.000  0.500  0.000
       0.000  0.000  0.500
     ------------------------ ATOM    9 ------------------------
     Tr[ns(  9)] =   1.00000
     eigenvalues:
       0.167  0.167  0.167
     eigenvectors (columns):
       1.000  0.000  0.000
       0.000  1.000  0.000
       0.000  0.000  1.000
     occupation matrix ns (before diag.):
       0.167  0.000  0.000
       0.000  0.167  0.000
       0.000  0.000  0.167
     ------------------------ ATOM   10 ------------------------
     Tr[ns( 10)] =   1.00000
     eigenvalues:
       0.167  0.167  0.167
     eigenvectors (columns):
       1.000  0.000  0.000
       0.000  1.000  0.000
       0.000  0.000  1.000
     occupation matrix ns (before diag.):
       0.167  0.000  0.000
       0.000  0.167  0.000
       0.000  0.000  0.167
     ------------------------ ATOM   11 ------------------------
     Tr[ns( 11)] =   1.00000
     eigenvalues:
       0.167  0.167  0.167
     eigenvectors (columns):
       1.000  0.000  0.000
       0.000  1.000  0.000
       0.000  0.000  1.000
     occupation matrix ns (before diag.):
       0.167  0.000  0.000
       0.000  0.167  0.000
       0.000  0.000  0.167
     ------------------------ ATOM   12 ------------------------
     Tr[ns( 12)] =   1.00000
     eigenvalues:
       0.167  0.167  0.167
     eigenvectors (columns):
       1.000  0.000  0.000
       0.000  1.000  0.000
       0.000  0.000  1.000
     occupation matrix ns (before diag.):
       0.167  0.000  0.000
       0.000  0.167  0.000
       0.000  0.000  0.167
     ------------------------ ATOM   13 ------------------------
     Tr[ns( 13)] =   3.00000
     eigenvalues:
       0.500  0.500  0.500
     eigenvectors (columns):
       1.000  0.000  0.000
       0.000  1.000  0.000
       0.000  0.000  1.000
     occupation matrix ns (before diag.):
       0.500  0.000  0.000
       0.000  0.500  0.000
       0.000  0.000  0.500
     ------------------------ ATOM   14 ------------------------
     Tr[ns( 14)] =   3.00000
     eigenvalues:
       0.500  0.500  0.500
     eigenvectors (columns):
       1.000  0.000  0.000
       0.000  1.000  0.000
       0.000  0.000  1.000
     occupation matrix ns (before diag.):
       0.500  0.000  0.000
       0.000  0.500  0.000
       0.000  0.000  0.500
     ------------------------ ATOM   15 ------------------------
     Tr[ns( 15)] =   3.00000
     eigenvalues:
       0.500  0.500  0.500
     eigenvectors (columns):
       1.000  0.000  0.000
       0.000  1.000  0.000
       0.000  0.000  1.000
     occupation matrix ns (before diag.):
       0.500  0.000  0.000
       0.000  0.500  0.000
       0.000  0.000  0.500
     ------------------------ ATOM   16 ------------------------
     Tr[ns( 16)] =   3.00000
     eigenvalues:
       0.500  0.500  0.500
     eigenvectors (columns):
       1.000  0.000  0.000
       0.000  1.000  0.000
       0.000  0.000  1.000
     occupation matrix ns (before diag.):
       0.500  0.000  0.000
       0.000  0.500  0.000
       0.000  0.000  0.500
     ------------------------ ATOM   17 ------------------------
     Tr[ns( 17)] =   1.00000
     eigenvalues:
       0.167  0.167  0.167
     eigenvectors (columns):
       1.000  0.000  0.000
       0.000  1.000  0.000
       0.000  0.000  1.000
     occupation matrix ns (before diag.):
       0.167  0.000  0.000
       0.000  0.167  0.000
       0.000  0.000  0.167
     ------------------------ ATOM   18 ------------------------
     Tr[ns( 18)] =   1.00000
     eigenvalues:
       0.167  0.167  0.167
     eigenvectors (columns):
       1.000  0.000  0.000
       0.000  1.000  0.000
       0.000  0.000  1.000
     occupation matrix ns (before diag.):
       0.167  0.000  0.000
       0.000  0.167  0.000
       0.000  0.000  0.167
     ------------------------ ATOM   19 ------------------------
     Tr[ns( 19)] =   1.00000
     eigenvalues:
       0.167  0.167  0.167
     eigenvectors (columns):
       1.000  0.000  0.000
       0.000  1.000  0.000
       0.000  0.000  1.000
     occupation matrix ns (before diag.):
       0.167  0.000  0.000
       0.000  0.167  0.000
       0.000  0.000  0.167
     ------------------------ ATOM   20 ------------------------
     Tr[ns( 20)] =   1.00000
     eigenvalues:
       0.167  0.167  0.167
     eigenvectors (columns):
       1.000  0.000  0.000
       0.000  1.000  0.000
       0.000  0.000  1.000
     occupation matrix ns (before diag.):
       0.167  0.000  0.000
       0.000  0.167  0.000
       0.000  0.000  0.167
     ------------------------ ATOM   21 ------------------------
     Tr[ns( 21)] =   3.00000
     eigenvalues:
       0.500  0.500  0.500
     eigenvectors (columns):
       1.000  0.000  0.000
       0.000  1.000  0.000
       0.000  0.000  1.000
     occupation matrix ns (before diag.):
       0.500  0.000  0.000
       0.000  0.500  0.000
       0.000  0.000  0.500
     ------------------------ ATOM   22 ------------------------
     Tr[ns( 22)] =   3.00000
     eigenvalues:
       0.500  0.500  0.500
     eigenvectors (columns):
       1.000  0.000  0.000
       0.000  1.000  0.000
       0.000  0.000  1.000
     occupation matrix ns (before diag.):
       0.500  0.000  0.000
       0.000  0.500  0.000
       0.000  0.000  0.500
     ------------------------ ATOM   23 ------------------------
     Tr[ns( 23)] =   3.00000
     eigenvalues:
       0.500  0.500  0.500
     eigenvectors (columns):
       1.000  0.000  0.000
       0.000  1.000  0.000
       0.000  0.000  1.000
     occupation matrix ns (before diag.):
       0.500  0.000  0.000
       0.000  0.500  0.000
       0.000  0.000  0.500
     ------------------------ ATOM   24 ------------------------
     Tr[ns( 24)] =   3.00000
     eigenvalues:
       0.500  0.500  0.500
     eigenvectors (columns):
       1.000  0.000  0.000
       0.000  1.000  0.000
       0.000  0.000  1.000
     occupation matrix ns (before diag.):
       0.500  0.000  0.000
       0.000  0.500  0.000
       0.000  0.000  0.500
     ------------------------ ATOM   25 ------------------------
     Tr[ns( 25)] =   1.00000
     eigenvalues:
       0.167  0.167  0.167
     eigenvectors (columns):
       1.000  0.000  0.000
       0.000  1.000  0.000
       0.000  0.000  1.000
     occupation matrix ns (before diag.):
       0.167  0.000  0.000
       0.000  0.167  0.000
       0.000  0.000  0.167
     ------------------------ ATOM   26 ------------------------
     Tr[ns( 26)] =   1.00000
     eigenvalues:
       0.167  0.167  0.167
     eigenvectors (columns):
       1.000  0.000  0.000
       0.000  1.000  0.000
       0.000  0.000  1.000
     occupation matrix ns (before diag.):
       0.167  0.000  0.000
       0.000  0.167  0.000
       0.000  0.000  0.167
     ------------------------ ATOM   27 ------------------------
     Tr[ns( 27)] =   1.00000
     eigenvalues:
       0.167  0.167  0.167
     eigenvectors (columns):
       1.000  0.000  0.000
       0.000  1.000  0.000
       0.000  0.000  1.000
     occupation matrix ns (before diag.):
       0.167  0.000  0.000
       0.000  0.167  0.000
       0.000  0.000  0.167
     ------------------------ ATOM   28 ------------------------
     Tr[ns( 28)] =   1.00000
     eigenvalues:
       0.167  0.167  0.167
     eigenvectors (columns):
       1.000  0.000  0.000
       0.000  1.000  0.000
       0.000  0.000  1.000
     occupation matrix ns (before diag.):
       0.167  0.000  0.000
       0.000  0.167  0.000
       0.000  0.000  0.167
     ------------------------ ATOM   29 ------------------------
     Tr[ns( 29)] =   3.00000
     eigenvalues:
       0.500  0.500  0.500
     eigenvectors (columns):
       1.000  0.000  0.000
       0.000  1.000  0.000
       0.000  0.000  1.000
     occupation matrix ns (before diag.):
       0.500  0.000  0.000
       0.000  0.500  0.000
       0.000  0.000  0.500
     ------------------------ ATOM   30 ------------------------
     Tr[ns( 30)] =   3.00000
     eigenvalues:
       0.500  0.500  0.500
     eigenvectors (columns):
       1.000  0.000  0.000
       0.000  1.000  0.000
       0.000  0.000  1.000
     occupation matrix ns (before diag.):
       0.500  0.000  0.000
       0.000  0.500  0.000
       0.000  0.000  0.500
     ------------------------ ATOM   31 ------------------------
     Tr[ns( 31)] =   3.00000
     eigenvalues:
       0.500  0.500  0.500
     eigenvectors (columns):
       1.000  0.000  0.000
       0.000  1.000  0.000
       0.000  0.000  1.000
     occupation matrix ns (before diag.):
       0.500  0.000  0.000
       0.000  0.500  0.000
       0.000  0.000  0.500
     ------------------------ ATOM   32 ------------------------
     Tr[ns( 32)] =   3.00000
     eigenvalues:
       0.500  0.500  0.500
     eigenvectors (columns):
       1.000  0.000  0.000
       0.000  1.000  0.000
       0.000  0.000  1.000
     occupation matrix ns (before diag.):
       0.500  0.000  0.000
       0.000  0.500  0.000
       0.000  0.000  0.500
     ------------------------ ATOM   33 ------------------------
     Tr[ns( 33)] =   1.00000
     eigenvalues:
       0.167  0.167  0.167
     eigenvectors (columns):
       1.000  0.000  0.000
       0.000  1.000  0.000
       0.000  0.000  1.000
     occupation matrix ns (before diag.):
       0.167  0.000  0.000
       0.000  0.167  0.000
       0.000  0.000  0.167
     ------------------------ ATOM   34 ------------------------
     Tr[ns( 34)] =   1.00000
     eigenvalues:
       0.167  0.167  0.167
     eigenvectors (columns):
       1.000  0.000  0.000
       0.000  1.000  0.000
       0.000  0.000  1.000
     occupation matrix ns (before diag.):
       0.167  0.000  0.000
       0.000  0.167  0.000
       0.000  0.000  0.167
     ------------------------ ATOM   35 ------------------------
     Tr[ns( 35)] =   1.00000
     eigenvalues:
       0.167  0.167  0.167
     eigenvectors (columns):
       1.000  0.000  0.000
       0.000  1.000  0.000
       0.000  0.000  1.000
     occupation matrix ns (before diag.):
       0.167  0.000  0.000
       0.000  0.167  0.000
       0.000  0.000  0.167
     ------------------------ ATOM   36 ------------------------
     Tr[ns( 36)] =   1.00000
     eigenvalues:
       0.167  0.167  0.167
     eigenvectors (columns):
       1.000  0.000  0.000
       0.000  1.000  0.000
       0.000  0.000  1.000
     occupation matrix ns (before diag.):
       0.167  0.000  0.000
       0.000  0.167  0.000
       0.000  0.000  0.167
     ------------------------ ATOM   37 ------------------------
     Tr[ns( 37)] =   3.00000
     eigenvalues:
       0.500  0.500  0.500
     eigenvectors (columns):
       1.000  0.000  0.000
       0.000  1.000  0.000
       0.000  0.000  1.000
     occupation matrix ns (before diag.):
       0.500  0.000  0.000
       0.000  0.500  0.000
       0.000  0.000  0.500
     ------------------------ ATOM   38 ------------------------
     Tr[ns( 38)] =   3.00000
     eigenvalues:
       0.500  0.500  0.500
     eigenvectors (columns):
       1.000  0.000  0.000
       0.000  1.000  0.000
       0.000  0.000  1.000
     occupation matrix ns (before diag.):
       0.500  0.000  0.000
       0.000  0.500  0.000
       0.000  0.000  0.500
     ------------------------ ATOM   39 ------------------------
     Tr[ns( 39)] =   3.00000
     eigenvalues:
       0.500  0.500  0.500
     eigenvectors (columns):
       1.000  0.000  0.000
       0.000  1.000  0.000
       0.000  0.000  1.000
     occupation matrix ns (before diag.):
       0.500  0.000  0.000
       0.000  0.500  0.000
       0.000  0.000  0.500
     ------------------------ ATOM   40 ------------------------
     Tr[ns( 40)] =   3.00000
     eigenvalues:
       0.500  0.500  0.500
     eigenvectors (columns):
       1.000  0.000  0.000
       0.000  1.000  0.000
       0.000  0.000  1.000
     occupation matrix ns (before diag.):
       0.500  0.000  0.000
       0.000  0.500  0.000
       0.000  0.000  0.500
     ------------------------ ATOM   41 ------------------------
     Tr[ns( 41)] =   1.00000
     eigenvalues:
       0.167  0.167  0.167
     eigenvectors (columns):
       1.000  0.000  0.000
       0.000  1.000  0.000
       0.000  0.000  1.000
     occupation matrix ns (before diag.):
       0.167  0.000  0.000
       0.000  0.167  0.000
       0.000  0.000  0.167
     ------------------------ ATOM   42 ------------------------
     Tr[ns( 42)] =   1.00000
     eigenvalues:
       0.167  0.167  0.167
     eigenvectors (columns):
       1.000  0.000  0.000
       0.000  1.000  0.000
       0.000  0.000  1.000
     occupation matrix ns (before diag.):
       0.167  0.000  0.000
       0.000  0.167  0.000
       0.000  0.000  0.167
     ------------------------ ATOM   43 ------------------------
     Tr[ns( 43)] =   1.00000
     eigenvalues:
       0.167  0.167  0.167
     eigenvectors (columns):
       1.000  0.000  0.000
       0.000  1.000  0.000
       0.000  0.000  1.000
     occupation matrix ns (before diag.):
       0.167  0.000  0.000
       0.000  0.167  0.000
       0.000  0.000  0.167
     ------------------------ ATOM   44 ------------------------
     Tr[ns( 44)] =   1.00000
     eigenvalues:
       0.167  0.167  0.167
     eigenvectors (columns):
       1.000  0.000  0.000
       0.000  1.000  0.000
       0.000  0.000  1.000
     occupation matrix ns (before diag.):
       0.167  0.000  0.000
       0.000  0.167  0.000
       0.000  0.000  0.167
     ------------------------ ATOM   45 ------------------------
     Tr[ns( 45)] =   3.00000
     eigenvalues:
       0.500  0.500  0.500
     eigenvectors (columns):
       1.000  0.000  0.000
       0.000  1.000  0.000
       0.000  0.000  1.000
     occupation matrix ns (before diag.):
       0.500  0.000  0.000
       0.000  0.500  0.000
       0.000  0.000  0.500
     ------------------------ ATOM   46 ------------------------
     Tr[ns( 46)] =   3.00000
     eigenvalues:
       0.500  0.500  0.500
     eigenvectors (columns):
       1.000  0.000  0.000
       0.000  1.000  0.000
       0.000  0.000  1.000
     occupation matrix ns (before diag.):
       0.500  0.000  0.000
       0.000  0.500  0.000
       0.000  0.000  0.500
     ------------------------ ATOM   47 ------------------------
     Tr[ns( 47)] =   3.00000
     eigenvalues:
       0.500  0.500  0.500
     eigenvectors (columns):
       1.000  0.000  0.000
       0.000  1.000  0.000
       0.000  0.000  1.000
     occupation matrix ns (before diag.):
       0.500  0.000  0.000
       0.000  0.500  0.000
       0.000  0.000  0.500
     ------------------------ ATOM   48 ------------------------
     Tr[ns( 48)] =   3.00000
     eigenvalues:
       0.500  0.500  0.500
     eigenvectors (columns):
       1.000  0.000  0.000
       0.000  1.000  0.000
       0.000  0.000  1.000
     occupation matrix ns (before diag.):
       0.500  0.000  0.000
       0.000  0.500  0.000
       0.000  0.000  0.500
     ------------------------ ATOM   49 ------------------------
     Tr[ns( 49)] =   1.00000
     eigenvalues:
       0.167  0.167  0.167
     eigenvectors (columns):
       1.000  0.000  0.000
       0.000  1.000  0.000
       0.000  0.000  1.000
     occupation matrix ns (before diag.):
       0.167  0.000  0.000
       0.000  0.167  0.000
       0.000  0.000  0.167
     ------------------------ ATOM   50 ------------------------
     Tr[ns( 50)] =   1.00000
     eigenvalues:
       0.167  0.167  0.167
     eigenvectors (columns):
       1.000  0.000  0.000
       0.000  1.000  0.000
       0.000  0.000  1.000
     occupation matrix ns (before diag.):
       0.167  0.000  0.000
       0.000  0.167  0.000
       0.000  0.000  0.167
     ------------------------ ATOM   51 ------------------------
     Tr[ns( 51)] =   1.00000
     eigenvalues:
       0.167  0.167  0.167
     eigenvectors (columns):
       1.000  0.000  0.000
       0.000  1.000  0.000
       0.000  0.000  1.000
     occupation matrix ns (before diag.):
       0.167  0.000  0.000
       0.000  0.167  0.000
       0.000  0.000  0.167
     ------------------------ ATOM   52 ------------------------
     Tr[ns( 52)] =   1.00000
     eigenvalues:
       0.167  0.167  0.167
     eigenvectors (columns):
       1.000  0.000  0.000
       0.000  1.000  0.000
       0.000  0.000  1.000
     occupation matrix ns (before diag.):
       0.167  0.000  0.000
       0.000  0.167  0.000
       0.000  0.000  0.167
     ------------------------ ATOM   53 ------------------------
     Tr[ns( 53)] =   3.00000
     eigenvalues:
       0.500  0.500  0.500
     eigenvectors (columns):
       1.000  0.000  0.000
       0.000  1.000  0.000
       0.000  0.000  1.000
     occupation matrix ns (before diag.):
       0.500  0.000  0.000
       0.000  0.500  0.000
       0.000  0.000  0.500
     ------------------------ ATOM   54 ------------------------
     Tr[ns( 54)] =   3.00000
     eigenvalues:
       0.500  0.500  0.500
     eigenvectors (columns):
       1.000  0.000  0.000
       0.000  1.000  0.000
       0.000  0.000  1.000
     occupation matrix ns (before diag.):
       0.500  0.000  0.000
       0.000  0.500  0.000
       0.000  0.000  0.500
     ------------------------ ATOM   55 ------------------------
     Tr[ns( 55)] =   3.00000
     eigenvalues:
       0.500  0.500  0.500
     eigenvectors (columns):
       1.000  0.000  0.000
       0.000  1.000  0.000
       0.000  0.000  1.000
     occupation matrix ns (before diag.):
       0.500  0.000  0.000
       0.000  0.500  0.000
       0.000  0.000  0.500
     ------------------------ ATOM   56 ------------------------
     Tr[ns( 56)] =   3.00000
     eigenvalues:
       0.500  0.500  0.500
     eigenvectors (columns):
       1.000  0.000  0.000
       0.000  1.000  0.000
       0.000  0.000  1.000
     occupation matrix ns (before diag.):
       0.500  0.000  0.000
       0.000  0.500  0.000
       0.000  0.000  0.500
     ------------------------ ATOM   57 ------------------------
     Tr[ns( 57)] =   1.00000
     eigenvalues:
       0.167  0.167  0.167
     eigenvectors (columns):
       1.000  0.000  0.000
       0.000  1.000  0.000
       0.000  0.000  1.000
     occupation matrix ns (before diag.):
       0.167  0.000  0.000
       0.000  0.167  0.000
       0.000  0.000  0.167
     ------------------------ ATOM   58 ------------------------
     Tr[ns( 58)] =   1.00000
     eigenvalues:
       0.167  0.167  0.167
     eigenvectors (columns):
       1.000  0.000  0.000
       0.000  1.000  0.000
       0.000  0.000  1.000
     occupation matrix ns (before diag.):
       0.167  0.000  0.000
       0.000  0.167  0.000
       0.000  0.000  0.167
     ------------------------ ATOM   59 ------------------------
     Tr[ns( 59)] =   1.00000
     eigenvalues:
       0.167  0.167  0.167
     eigenvectors (columns):
       1.000  0.000  0.000
       0.000  1.000  0.000
       0.000  0.000  1.000
     occupation matrix ns (before diag.):
       0.167  0.000  0.000
       0.000  0.167  0.000
       0.000  0.000  0.167
     ------------------------ ATOM   60 ------------------------
     Tr[ns( 60)] =   1.00000
     eigenvalues:
       0.167  0.167  0.167
     eigenvectors (columns):
       1.000  0.000  0.000
       0.000  1.000  0.000
       0.000  0.000  1.000
     occupation matrix ns (before diag.):
       0.167  0.000  0.000
       0.000  0.167  0.000
       0.000  0.000  0.167
     ------------------------ ATOM   61 ------------------------
     Tr[ns( 61)] =   3.00000
     eigenvalues:
       0.500  0.500  0.500
     eigenvectors (columns):
       1.000  0.000  0.000
       0.000  1.000  0.000
       0.000  0.000  1.000
     occupation matrix ns (before diag.):
       0.500  0.000  0.000
       0.000  0.500  0.000
       0.000  0.000  0.500
     ------------------------ ATOM   62 ------------------------
     Tr[ns( 62)] =   3.00000
     eigenvalues:
       0.500  0.500  0.500
     eigenvectors (columns):
       1.000  0.000  0.000
       0.000  1.000  0.000
       0.000  0.000  1.000
     occupation matrix ns (before diag.):
       0.500  0.000  0.000
       0.000  0.500  0.000
       0.000  0.000  0.500
     ------------------------ ATOM   63 ------------------------
     Tr[ns( 63)] =   3.00000
     eigenvalues:
       0.500  0.500  0.500
     eigenvectors (columns):
       1.000  0.000  0.000
       0.000  1.000  0.000
       0.000  0.000  1.000
     occupation matrix ns (before diag.):
       0.500  0.000  0.000
       0.000  0.500  0.000
       0.000  0.000  0.500
     ------------------------ ATOM   64 ------------------------
     Tr[ns( 64)] =   3.00000
     eigenvalues:
       0.500  0.500  0.500
     eigenvectors (columns):
       1.000  0.000  0.000
       0.000  1.000  0.000
       0.000  0.000  1.000
     occupation matrix ns (before diag.):
       0.500  0.000  0.000
       0.000  0.500  0.000
       0.000  0.000  0.500
     ------------------------ ATOM   65 ------------------------
     Tr[ns( 65)] =   1.00000
     eigenvalues:
       0.167  0.167  0.167
     eigenvectors (columns):
       1.000  0.000  0.000
       0.000  1.000  0.000
       0.000  0.000  1.000
     occupation matrix ns (before diag.):
       0.167  0.000  0.000
       0.000  0.167  0.000
       0.000  0.000  0.167
     ------------------------ ATOM   66 ------------------------
     Tr[ns( 66)] =   1.00000
     eigenvalues:
       0.167  0.167  0.167
     eigenvectors (columns):
       1.000  0.000  0.000
       0.000  1.000  0.000
       0.000  0.000  1.000
     occupation matrix ns (before diag.):
       0.167  0.000  0.000
       0.000  0.167  0.000
       0.000  0.000  0.167
     ------------------------ ATOM   67 ------------------------
     Tr[ns( 67)] =   1.00000
     eigenvalues:
       0.167  0.167  0.167
     eigenvectors (columns):
       1.000  0.000  0.000
       0.000  1.000  0.000
       0.000  0.000  1.000
     occupation matrix ns (before diag.):
       0.167  0.000  0.000
       0.000  0.167  0.000
       0.000  0.000  0.167
     ------------------------ ATOM   68 ------------------------
     Tr[ns( 68)] =   1.00000
     eigenvalues:
       0.167  0.167  0.167
     eigenvectors (columns):
       1.000  0.000  0.000
       0.000  1.000  0.000
       0.000  0.000  1.000
     occupation matrix ns (before diag.):
       0.167  0.000  0.000
       0.000  0.167  0.000
       0.000  0.000  0.167
     ------------------------ ATOM   69 ------------------------
     Tr[ns( 69)] =   3.00000
     eigenvalues:
       0.500  0.500  0.500
     eigenvectors (columns):
       1.000  0.000  0.000
       0.000  1.000  0.000
       0.000  0.000  1.000
     occupation matrix ns (before diag.):
       0.500  0.000  0.000
       0.000  0.500  0.000
       0.000  0.000  0.500
     ------------------------ ATOM   70 ------------------------
     Tr[ns( 70)] =   3.00000
     eigenvalues:
       0.500  0.500  0.500
     eigenvectors (columns):
       1.000  0.000  0.000
       0.000  1.000  0.000
       0.000  0.000  1.000
     occupation matrix ns (before diag.):
       0.500  0.000  0.000
       0.000  0.500  0.000
       0.000  0.000  0.500
     ------------------------ ATOM   71 ------------------------
     Tr[ns( 71)] =   3.00000
     eigenvalues:
       0.500  0.500  0.500
     eigenvectors (columns):
       1.000  0.000  0.000
       0.000  1.000  0.000
       0.000  0.000  1.000
     occupation matrix ns (before diag.):
       0.500  0.000  0.000
       0.000  0.500  0.000
       0.000  0.000  0.500
     ------------------------ ATOM   72 ------------------------
     Tr[ns( 72)] =   3.00000
     eigenvalues:
       0.500  0.500  0.500
     eigenvectors (columns):
       1.000  0.000  0.000
       0.000  1.000  0.000
       0.000  0.000  1.000
     occupation matrix ns (before diag.):
       0.500  0.000  0.000
       0.000  0.500  0.000
       0.000  0.000  0.500
     ------------------------ ATOM   73 ------------------------
     Tr[ns( 73)] =   1.00000
     eigenvalues:
       0.167  0.167  0.167
     eigenvectors (columns):
       1.000  0.000  0.000
       0.000  1.000  0.000
       0.000  0.000  1.000
     occupation matrix ns (before diag.):
       0.167  0.000  0.000
       0.000  0.167  0.000
       0.000  0.000  0.167
     ------------------------ ATOM   74 ------------------------
     Tr[ns( 74)] =   1.00000
     eigenvalues:
       0.167  0.167  0.167
     eigenvectors (columns):
       1.000  0.000  0.000
       0.000  1.000  0.000
       0.000  0.000  1.000
     occupation matrix ns (before diag.):
       0.167  0.000  0.000
       0.000  0.167  0.000
       0.000  0.000  0.167
     ------------------------ ATOM   75 ------------------------
     Tr[ns( 75)] =   1.00000
     eigenvalues:
       0.167  0.167  0.167
     eigenvectors (columns):
       1.000  0.000  0.000
       0.000  1.000  0.000
       0.000  0.000  1.000
     occupation matrix ns (before diag.):
       0.167  0.000  0.000
       0.000  0.167  0.000
       0.000  0.000  0.167
     ------------------------ ATOM   76 ------------------------
     Tr[ns( 76)] =   1.00000
     eigenvalues:
       0.167  0.167  0.167
     eigenvectors (columns):
       1.000  0.000  0.000
       0.000  1.000  0.000
       0.000  0.000  1.000
     occupation matrix ns (before diag.):
       0.167  0.000  0.000
       0.000  0.167  0.000
       0.000  0.000  0.167
     ------------------------ ATOM   77 ------------------------
     Tr[ns( 77)] =   3.00000
     eigenvalues:
       0.500  0.500  0.500
     eigenvectors (columns):
       1.000  0.000  0.000
       0.000  1.000  0.000
       0.000  0.000  1.000
     occupation matrix ns (before diag.):
       0.500  0.000  0.000
       0.000  0.500  0.000
       0.000  0.000  0.500
     ------------------------ ATOM   78 ------------------------
     Tr[ns( 78)] =   3.00000
     eigenvalues:
       0.500  0.500  0.500
     eigenvectors (columns):
       1.000  0.000  0.000
       0.000  1.000  0.000
       0.000  0.000  1.000
     occupation matrix ns (before diag.):
       0.500  0.000  0.000
       0.000  0.500  0.000
       0.000  0.000  0.500
     ------------------------ ATOM   79 ------------------------
     Tr[ns( 79)] =   3.00000
     eigenvalues:
       0.500  0.500  0.500
     eigenvectors (columns):
       1.000  0.000  0.000
       0.000  1.000  0.000
       0.000  0.000  1.000
     occupation matrix ns (before diag.):
       0.500  0.000  0.000
       0.000  0.500  0.000
       0.000  0.000  0.500
     ------------------------ ATOM   80 ------------------------
     Tr[ns( 80)] =   3.00000
     eigenvalues:
       0.500  0.500  0.500
     eigenvectors (columns):
       1.000  0.000  0.000
       0.000  1.000  0.000
       0.000  0.000  1.000
     occupation matrix ns (before diag.):
       0.500  0.000  0.000
       0.000  0.500  0.000
       0.000  0.000  0.500
     ------------------------ ATOM   81 ------------------------
     Tr[ns( 81)] =   1.00000
     eigenvalues:
       0.167  0.167  0.167
     eigenvectors (columns):
       1.000  0.000  0.000
       0.000  1.000  0.000
       0.000  0.000  1.000
     occupation matrix ns (before diag.):
       0.167  0.000  0.000
       0.000  0.167  0.000
       0.000  0.000  0.167
     ------------------------ ATOM   82 ------------------------
     Tr[ns( 82)] =   1.00000
     eigenvalues:
       0.167  0.167  0.167
     eigenvectors (columns):
       1.000  0.000  0.000
       0.000  1.000  0.000
       0.000  0.000  1.000
     occupation matrix ns (before diag.):
       0.167  0.000  0.000
       0.000  0.167  0.000
       0.000  0.000  0.167
     ------------------------ ATOM   83 ------------------------
     Tr[ns( 83)] =   1.00000
     eigenvalues:
       0.167  0.167  0.167
     eigenvectors (columns):
       1.000  0.000  0.000
       0.000  1.000  0.000
       0.000  0.000  1.000
     occupation matrix ns (before diag.):
       0.167  0.000  0.000
       0.000  0.167  0.000
       0.000  0.000  0.167
     ------------------------ ATOM   84 ------------------------
     Tr[ns( 84)] =   1.00000
     eigenvalues:
       0.167  0.167  0.167
     eigenvectors (columns):
       1.000  0.000  0.000
       0.000  1.000  0.000
       0.000  0.000  1.000
     occupation matrix ns (before diag.):
       0.167  0.000  0.000
       0.000  0.167  0.000
       0.000  0.000  0.167
     ------------------------ ATOM   85 ------------------------
     Tr[ns( 85)] =   3.00000
     eigenvalues:
       0.500  0.500  0.500
     eigenvectors (columns):
       1.000  0.000  0.000
       0.000  1.000  0.000
       0.000  0.000  1.000
     occupation matrix ns (before diag.):
       0.500  0.000  0.000
       0.000  0.500  0.000
       0.000  0.000  0.500
     ------------------------ ATOM   86 ------------------------
     Tr[ns( 86)] =   3.00000
     eigenvalues:
       0.500  0.500  0.500
     eigenvectors (columns):
       1.000  0.000  0.000
       0.000  1.000  0.000
       0.000  0.000  1.000
     occupation matrix ns (before diag.):
       0.500  0.000  0.000
       0.000  0.500  0.000
       0.000  0.000  0.500
     ------------------------ ATOM   87 ------------------------
     Tr[ns( 87)] =   3.00000
     eigenvalues:
       0.500  0.500  0.500
     eigenvectors (columns):
       1.000  0.000  0.000
       0.000  1.000  0.000
       0.000  0.000  1.000
     occupation matrix ns (before diag.):
       0.500  0.000  0.000
       0.000  0.500  0.000
       0.000  0.000  0.500
     ------------------------ ATOM   88 ------------------------
     Tr[ns( 88)] =   3.00000
     eigenvalues:
       0.500  0.500  0.500
     eigenvectors (columns):
       1.000  0.000  0.000
       0.000  1.000  0.000
       0.000  0.000  1.000
     occupation matrix ns (before diag.):
       0.500  0.000  0.000
       0.000  0.500  0.000
       0.000  0.000  0.500
     ------------------------ ATOM   89 ------------------------
     Tr[ns( 89)] =   1.00000
     eigenvalues:
       0.167  0.167  0.167
     eigenvectors (columns):
       1.000  0.000  0.000
       0.000  1.000  0.000
       0.000  0.000  1.000
     occupation matrix ns (before diag.):
       0.167  0.000  0.000
       0.000  0.167  0.000
       0.000  0.000  0.167
     ------------------------ ATOM   90 ------------------------
     Tr[ns( 90)] =   1.00000
     eigenvalues:
       0.167  0.167  0.167
     eigenvectors (columns):
       1.000  0.000  0.000
       0.000  1.000  0.000
       0.000  0.000  1.000
     occupation matrix ns (before diag.):
       0.167  0.000  0.000
       0.000  0.167  0.000
       0.000  0.000  0.167
     ------------------------ ATOM   91 ------------------------
     Tr[ns( 91)] =   1.00000
     eigenvalues:
       0.167  0.167  0.167
     eigenvectors (columns):
       1.000  0.000  0.000
       0.000  1.000  0.000
       0.000  0.000  1.000
     occupation matrix ns (before diag.):
       0.167  0.000  0.000
       0.000  0.167  0.000
       0.000  0.000  0.167
     ------------------------ ATOM   92 ------------------------
     Tr[ns( 92)] =   1.00000
     eigenvalues:
       0.167  0.167  0.167
     eigenvectors (columns):
       1.000  0.000  0.000
       0.000  1.000  0.000
       0.000  0.000  1.000
     occupation matrix ns (before diag.):
       0.167  0.000  0.000
       0.000  0.167  0.000
       0.000  0.000  0.167
     ------------------------ ATOM   93 ------------------------
     Tr[ns( 93)] =   3.00000
     eigenvalues:
       0.500  0.500  0.500
     eigenvectors (columns):
       1.000  0.000  0.000
       0.000  1.000  0.000
       0.000  0.000  1.000
     occupation matrix ns (before diag.):
       0.500  0.000  0.000
       0.000  0.500  0.000
       0.000  0.000  0.500
     ------------------------ ATOM   94 ------------------------
     Tr[ns( 94)] =   3.00000
     eigenvalues:
       0.500  0.500  0.500
     eigenvectors (columns):
       1.000  0.000  0.000
       0.000  1.000  0.000
       0.000  0.000  1.000
     occupation matrix ns (before diag.):
       0.500  0.000  0.000
       0.000  0.500  0.000
       0.000  0.000  0.500
     ------------------------ ATOM   95 ------------------------
     Tr[ns( 95)] =   3.00000
     eigenvalues:
       0.500  0.500  0.500
     eigenvectors (columns):
       1.000  0.000  0.000
       0.000  1.000  0.000
       0.000  0.000  1.000
     occupation matrix ns (before diag.):
       0.500  0.000  0.000
       0.000  0.500  0.000
       0.000  0.000  0.500
     ------------------------ ATOM   96 ------------------------
     Tr[ns( 96)] =   3.00000
     eigenvalues:
       0.500  0.500  0.500
     eigenvectors (columns):
       1.000  0.000  0.000
       0.000  1.000  0.000
       0.000  0.000  1.000
     occupation matrix ns (before diag.):
       0.500  0.000  0.000
       0.000  0.500  0.000
       0.000  0.000  0.500
     ------------------------ ATOM   97 ------------------------
     Tr[ns( 97)] =   1.00000
     eigenvalues:
       0.167  0.167  0.167
     eigenvectors (columns):
       1.000  0.000  0.000
       0.000  1.000  0.000
       0.000  0.000  1.000
     occupation matrix ns (before diag.):
       0.167  0.000  0.000
       0.000  0.167  0.000
       0.000  0.000  0.167
     ------------------------ ATOM   98 ------------------------
     Tr[ns( 98)] =   1.00000
     eigenvalues:
       0.167  0.167  0.167
     eigenvectors (columns):
       1.000  0.000  0.000
       0.000  1.000  0.000
       0.000  0.000  1.000
     occupation matrix ns (before diag.):
       0.167  0.000  0.000
       0.000  0.167  0.000
       0.000  0.000  0.167
     ------------------------ ATOM   99 ------------------------
     Tr[ns( 99)] =   1.00000
     eigenvalues:
       0.167  0.167  0.167
     eigenvectors (columns):
       1.000  0.000  0.000
       0.000  1.000  0.000
       0.000  0.000  1.000
     occupation matrix ns (before diag.):
       0.167  0.000  0.000
       0.000  0.167  0.000
       0.000  0.000  0.167
     ------------------------ ATOM  100 ------------------------
     Tr[ns(100)] =   1.00000
     eigenvalues:
       0.167  0.167  0.167
     eigenvectors (columns):
       1.000  0.000  0.000
       0.000  1.000  0.000
       0.000  0.000  1.000
     occupation matrix ns (before diag.):
       0.167  0.000  0.000
       0.000  0.167  0.000
       0.000  0.000  0.167
     ------------------------ ATOM  101 ------------------------
     Tr[ns(101)] =   3.00000
     eigenvalues:
       0.500  0.500  0.500
     eigenvectors (columns):
       1.000  0.000  0.000
       0.000  1.000  0.000
       0.000  0.000  1.000
     occupation matrix ns (before diag.):
       0.500  0.000  0.000
       0.000  0.500  0.000
       0.000  0.000  0.500
     ------------------------ ATOM  102 ------------------------
     Tr[ns(102)] =   3.00000
     eigenvalues:
       0.500  0.500  0.500
     eigenvectors (columns):
       1.000  0.000  0.000
       0.000  1.000  0.000
       0.000  0.000  1.000
     occupation matrix ns (before diag.):
       0.500  0.000  0.000
       0.000  0.500  0.000
       0.000  0.000  0.500
     ------------------------ ATOM  103 ------------------------
     Tr[ns(103)] =   3.00000
     eigenvalues:
       0.500  0.500  0.500
     eigenvectors (columns):
       1.000  0.000  0.000
       0.000  1.000  0.000
       0.000  0.000  1.000
     occupation matrix ns (before diag.):
       0.500  0.000  0.000
       0.000  0.500  0.000
       0.000  0.000  0.500
     ------------------------ ATOM  104 ------------------------
     Tr[ns(104)] =   3.00000
     eigenvalues:
       0.500  0.500  0.500
     eigenvectors (columns):
       1.000  0.000  0.000
       0.000  1.000  0.000
       0.000  0.000  1.000
     occupation matrix ns (before diag.):
       0.500  0.000  0.000
       0.000  0.500  0.000
       0.000  0.000  0.500
     ------------------------ ATOM  105 ------------------------
     Tr[ns(105)] =   1.00000
     eigenvalues:
       0.167  0.167  0.167
     eigenvectors (columns):
       1.000  0.000  0.000
       0.000  1.000  0.000
       0.000  0.000  1.000
     occupation matrix ns (before diag.):
       0.167  0.000  0.000
       0.000  0.167  0.000
       0.000  0.000  0.167
     ------------------------ ATOM  106 ------------------------
     Tr[ns(106)] =   1.00000
     eigenvalues:
       0.167  0.167  0.167
     eigenvectors (columns):
       1.000  0.000  0.000
       0.000  1.000  0.000
       0.000  0.000  1.000
     occupation matrix ns (before diag.):
       0.167  0.000  0.000
       0.000  0.167  0.000
       0.000  0.000  0.167
     ------------------------ ATOM  107 ------------------------
     Tr[ns(107)] =   1.00000
     eigenvalues:
       0.167  0.167  0.167
     eigenvectors (columns):
       1.000  0.000  0.000
       0.000  1.000  0.000
       0.000  0.000  1.000
     occupation matrix ns (before diag.):
       0.167  0.000  0.000
       0.000  0.167  0.000
       0.000  0.000  0.167
     ------------------------ ATOM  108 ------------------------
     Tr[ns(108)] =   1.00000
     eigenvalues:
       0.167  0.167  0.167
     eigenvectors (columns):
       1.000  0.000  0.000
       0.000  1.000  0.000
       0.000  0.000  1.000
     occupation matrix ns (before diag.):
       0.167  0.000  0.000
       0.000  0.167  0.000
       0.000  0.000  0.167
     ------------------------ ATOM  109 ------------------------
     Tr[ns(109)] =   3.00000
     eigenvalues:
       0.500  0.500  0.500
     eigenvectors (columns):
       1.000  0.000  0.000
       0.000  1.000  0.000
       0.000  0.000  1.000
     occupation matrix ns (before diag.):
       0.500  0.000  0.000
       0.000  0.500  0.000
       0.000  0.000  0.500
     ------------------------ ATOM  110 ------------------------
     Tr[ns(110)] =   3.00000
     eigenvalues:
       0.500  0.500  0.500
     eigenvectors (columns):
       1.000  0.000  0.000
       0.000  1.000  0.000
       0.000  0.000  1.000
     occupation matrix ns (before diag.):
       0.500  0.000  0.000
       0.000  0.500  0.000
       0.000  0.000  0.500
     ------------------------ ATOM  111 ------------------------
     Tr[ns(111)] =   3.00000
     eigenvalues:
       0.500  0.500  0.500
     eigenvectors (columns):
       1.000  0.000  0.000
       0.000  1.000  0.000
       0.000  0.000  1.000
     occupation matrix ns (before diag.):
       0.500  0.000  0.000
       0.000  0.500  0.000
       0.000  0.000  0.500
     ------------------------ ATOM  112 ------------------------
     Tr[ns(112)] =   3.00000
     eigenvalues:
       0.500  0.500  0.500
     eigenvectors (columns):
       1.000  0.000  0.000
       0.000  1.000  0.000
       0.000  0.000  1.000
     occupation matrix ns (before diag.):
       0.500  0.000  0.000
       0.000  0.500  0.000
       0.000  0.000  0.500
     ------------------------ ATOM  113 ------------------------
     Tr[ns(113)] =   1.00000
     eigenvalues:
       0.167  0.167  0.167
     eigenvectors (columns):
       1.000  0.000  0.000
       0.000  1.000  0.000
       0.000  0.000  1.000
     occupation matrix ns (before diag.):
       0.167  0.000  0.000
       0.000  0.167  0.000
       0.000  0.000  0.167
     ------------------------ ATOM  114 ------------------------
     Tr[ns(114)] =   1.00000
     eigenvalues:
       0.167  0.167  0.167
     eigenvectors (columns):
       1.000  0.000  0.000
       0.000  1.000  0.000
       0.000  0.000  1.000
     occupation matrix ns (before diag.):
       0.167  0.000  0.000
       0.000  0.167  0.000
       0.000  0.000  0.167
     ------------------------ ATOM  115 ------------------------
     Tr[ns(115)] =   1.00000
     eigenvalues:
       0.167  0.167  0.167
     eigenvectors (columns):
       1.000  0.000  0.000
       0.000  1.000  0.000
       0.000  0.000  1.000
     occupation matrix ns (before diag.):
       0.167  0.000  0.000
       0.000  0.167  0.000
       0.000  0.000  0.167
     ------------------------ ATOM  116 ------------------------
     Tr[ns(116)] =   1.00000
     eigenvalues:
       0.167  0.167  0.167
     eigenvectors (columns):
       1.000  0.000  0.000
       0.000  1.000  0.000
       0.000  0.000  1.000
     occupation matrix ns (before diag.):
       0.167  0.000  0.000
       0.000  0.167  0.000
       0.000  0.000  0.167
     ------------------------ ATOM  117 ------------------------
     Tr[ns(117)] =   3.00000
     eigenvalues:
       0.500  0.500  0.500
     eigenvectors (columns):
       1.000  0.000  0.000
       0.000  1.000  0.000
       0.000  0.000  1.000
     occupation matrix ns (before diag.):
       0.500  0.000  0.000
       0.000  0.500  0.000
       0.000  0.000  0.500
     ------------------------ ATOM  118 ------------------------
     Tr[ns(118)] =   3.00000
     eigenvalues:
       0.500  0.500  0.500
     eigenvectors (columns):
       1.000  0.000  0.000
       0.000  1.000  0.000
       0.000  0.000  1.000
     occupation matrix ns (before diag.):
       0.500  0.000  0.000
       0.000  0.500  0.000
       0.000  0.000  0.500
     ------------------------ ATOM  119 ------------------------
     Tr[ns(119)] =   3.00000
     eigenvalues:
       0.500  0.500  0.500
     eigenvectors (columns):
       1.000  0.000  0.000
       0.000  1.000  0.000
       0.000  0.000  1.000
     occupation matrix ns (before diag.):
       0.500  0.000  0.000
       0.000  0.500  0.000
       0.000  0.000  0.500
     ------------------------ ATOM  120 ------------------------
     Tr[ns(120)] =   3.00000
     eigenvalues:
       0.500  0.500  0.500
     eigenvectors (columns):
       1.000  0.000  0.000
       0.000  1.000  0.000
       0.000  0.000  1.000
     occupation matrix ns (before diag.):
       0.500  0.000  0.000
       0.000  0.500  0.000
       0.000  0.000  0.500
     ------------------------ ATOM  121 ------------------------
     Tr[ns(121)] =   1.00000
     eigenvalues:
       0.167  0.167  0.167
     eigenvectors (columns):
       1.000  0.000  0.000
       0.000  1.000  0.000
       0.000  0.000  1.000
     occupation matrix ns (before diag.):
       0.167  0.000  0.000
       0.000  0.167  0.000
       0.000  0.000  0.167
     ------------------------ ATOM  122 ------------------------
     Tr[ns(122)] =   1.00000
     eigenvalues:
       0.167  0.167  0.167
     eigenvectors (columns):
       1.000  0.000  0.000
       0.000  1.000  0.000
       0.000  0.000  1.000
     occupation matrix ns (before diag.):
       0.167  0.000  0.000
       0.000  0.167  0.000
       0.000  0.000  0.167
     ------------------------ ATOM  123 ------------------------
     Tr[ns(123)] =   1.00000
     eigenvalues:
       0.167  0.167  0.167
     eigenvectors (columns):
       1.000  0.000  0.000
       0.000  1.000  0.000
       0.000  0.000  1.000
     occupation matrix ns (before diag.):
       0.167  0.000  0.000
       0.000  0.167  0.000
       0.000  0.000  0.167
     ------------------------ ATOM  124 ------------------------
     Tr[ns(124)] =   1.00000
     eigenvalues:
       0.167  0.167  0.167
     eigenvectors (columns):
       1.000  0.000  0.000
       0.000  1.000  0.000
       0.000  0.000  1.000
     occupation matrix ns (before diag.):
       0.167  0.000  0.000
       0.000  0.167  0.000
       0.000  0.000  0.167
     ------------------------ ATOM  125 ------------------------
     Tr[ns(125)] =   3.00000
     eigenvalues:
       0.500  0.500  0.500
     eigenvectors (columns):
       1.000  0.000  0.000
       0.000  1.000  0.000
       0.000  0.000  1.000
     occupation matrix ns (before diag.):
       0.500  0.000  0.000
       0.000  0.500  0.000
       0.000  0.000  0.500
     ------------------------ ATOM  126 ------------------------
     Tr[ns(126)] =   3.00000
     eigenvalues:
       0.500  0.500  0.500
     eigenvectors (columns):
       1.000  0.000  0.000
       0.000  1.000  0.000
       0.000  0.000  1.000
     occupation matrix ns (before diag.):
       0.500  0.000  0.000
       0.000  0.500  0.000
       0.000  0.000  0.500
     ------------------------ ATOM  127 ------------------------
     Tr[ns(127)] =   3.00000
     eigenvalues:
       0.500  0.500  0.500
     eigenvectors (columns):
       1.000  0.000  0.000
       0.000  1.000  0.000
       0.000  0.000  1.000
     occupation matrix ns (before diag.):
       0.500  0.000  0.000
       0.000  0.500  0.000
       0.000  0.000  0.500
     ------------------------ ATOM  128 ------------------------
     Tr[ns(128)] =   3.00000
     eigenvalues:
       0.500  0.500  0.500
     eigenvectors (columns):
       1.000  0.000  0.000
       0.000  1.000  0.000
       0.000  0.000  1.000
     occupation matrix ns (before diag.):
       0.500  0.000  0.000
       0.000  0.500  0.000
       0.000  0.000  0.500
     ------------------------ ATOM  129 ------------------------
     Tr[ns(129)] =   1.00000
     eigenvalues:
       0.167  0.167  0.167
     eigenvectors (columns):
       1.000  0.000  0.000
       0.000  1.000  0.000
       0.000  0.000  1.000
     occupation matrix ns (before diag.):
       0.167  0.000  0.000
       0.000  0.167  0.000
       0.000  0.000  0.167
     ------------------------ ATOM  130 ------------------------
     Tr[ns(130)] =   1.00000
     eigenvalues:
       0.167  0.167  0.167
     eigenvectors (columns):
       1.000  0.000  0.000
       0.000  1.000  0.000
       0.000  0.000  1.000
     occupation matrix ns (before diag.):
       0.167  0.000  0.000
       0.000  0.167  0.000
       0.000  0.000  0.167
     ------------------------ ATOM  131 ------------------------
     Tr[ns(131)] =   1.00000
     eigenvalues:
       0.167  0.167  0.167
     eigenvectors (columns):
       1.000  0.000  0.000
       0.000  1.000  0.000
       0.000  0.000  1.000
     occupation matrix ns (before diag.):
       0.167  0.000  0.000
       0.000  0.167  0.000
       0.000  0.000  0.167
     ------------------------ ATOM  132 ------------------------
     Tr[ns(132)] =   1.00000
     eigenvalues:
       0.167  0.167  0.167
     eigenvectors (columns):
       1.000  0.000  0.000
       0.000  1.000  0.000
       0.000  0.000  1.000
     occupation matrix ns (before diag.):
       0.167  0.000  0.000
       0.000  0.167  0.000
       0.000  0.000  0.167
     ------------------------ ATOM  133 ------------------------
     Tr[ns(133)] =   3.00000
     eigenvalues:
       0.500  0.500  0.500
     eigenvectors (columns):
       1.000  0.000  0.000
       0.000  1.000  0.000
       0.000  0.000  1.000
     occupation matrix ns (before diag.):
       0.500  0.000  0.000
       0.000  0.500  0.000
       0.000  0.000  0.500
     ------------------------ ATOM  134 ------------------------
     Tr[ns(134)] =   3.00000
     eigenvalues:
       0.500  0.500  0.500
     eigenvectors (columns):
       1.000  0.000  0.000
       0.000  1.000  0.000
       0.000  0.000  1.000
     occupation matrix ns (before diag.):
       0.500  0.000  0.000
       0.000  0.500  0.000
       0.000  0.000  0.500
     ------------------------ ATOM  135 ------------------------
     Tr[ns(135)] =   3.00000
     eigenvalues:
       0.500  0.500  0.500
     eigenvectors (columns):
       1.000  0.000  0.000
       0.000  1.000  0.000
       0.000  0.000  1.000
     occupation matrix ns (before diag.):
       0.500  0.000  0.000
       0.000  0.500  0.000
       0.000  0.000  0.500
     ------------------------ ATOM  136 ------------------------
     Tr[ns(136)] =   3.00000
     eigenvalues:
       0.500  0.500  0.500
     eigenvectors (columns):
       1.000  0.000  0.000
       0.000  1.000  0.000
       0.000  0.000  1.000
     occupation matrix ns (before diag.):
       0.500  0.000  0.000
       0.000  0.500  0.000
       0.000  0.000  0.500
     ------------------------ ATOM  137 ------------------------
     Tr[ns(137)] =   1.00000
     eigenvalues:
       0.167  0.167  0.167
     eigenvectors (columns):
       1.000  0.000  0.000
       0.000  1.000  0.000
       0.000  0.000  1.000
     occupation matrix ns (before diag.):
       0.167  0.000  0.000
       0.000  0.167  0.000
       0.000  0.000  0.167
     ------------------------ ATOM  138 ------------------------
     Tr[ns(138)] =   1.00000
     eigenvalues:
       0.167  0.167  0.167
     eigenvectors (columns):
       1.000  0.000  0.000
       0.000  1.000  0.000
       0.000  0.000  1.000
     occupation matrix ns (before diag.):
       0.167  0.000  0.000
       0.000  0.167  0.000
       0.000  0.000  0.167
     ------------------------ ATOM  139 ------------------------
     Tr[ns(139)] =   1.00000
     eigenvalues:
       0.167  0.167  0.167
     eigenvectors (columns):
       1.000  0.000  0.000
       0.000  1.000  0.000
       0.000  0.000  1.000
     occupation matrix ns (before diag.):
       0.167  0.000  0.000
       0.000  0.167  0.000
       0.000  0.000  0.167
     ------------------------ ATOM  140 ------------------------
     Tr[ns(140)] =   1.00000
     eigenvalues:
       0.167  0.167  0.167
     eigenvectors (columns):
       1.000  0.000  0.000
       0.000  1.000  0.000
       0.000  0.000  1.000
     occupation matrix ns (before diag.):
       0.167  0.000  0.000
       0.000  0.167  0.000
       0.000  0.000  0.167
     ------------------------ ATOM  141 ------------------------
     Tr[ns(141)] =   3.00000
     eigenvalues:
       0.500  0.500  0.500
     eigenvectors (columns):
       1.000  0.000  0.000
       0.000  1.000  0.000
       0.000  0.000  1.000
     occupation matrix ns (before diag.):
       0.500  0.000  0.000
       0.000  0.500  0.000
       0.000  0.000  0.500
     ------------------------ ATOM  142 ------------------------
     Tr[ns(142)] =   3.00000
     eigenvalues:
       0.500  0.500  0.500
     eigenvectors (columns):
       1.000  0.000  0.000
       0.000  1.000  0.000
       0.000  0.000  1.000
     occupation matrix ns (before diag.):
       0.500  0.000  0.000
       0.000  0.500  0.000
       0.000  0.000  0.500
     ------------------------ ATOM  143 ------------------------
     Tr[ns(143)] =   3.00000
     eigenvalues:
       0.500  0.500  0.500
     eigenvectors (columns):
       1.000  0.000  0.000
       0.000  1.000  0.000
       0.000  0.000  1.000
     occupation matrix ns (before diag.):
       0.500  0.000  0.000
       0.000  0.500  0.000
       0.000  0.000  0.500
     ------------------------ ATOM  144 ------------------------
     Tr[ns(144)] =   3.00000
     eigenvalues:
       0.500  0.500  0.500
     eigenvectors (columns):
       1.000  0.000  0.000
       0.000  1.000  0.000
       0.000  0.000  1.000
     occupation matrix ns (before diag.):
       0.500  0.000  0.000
       0.000  0.500  0.000
       0.000  0.000  0.500
     ------------------------ ATOM  145 ------------------------
     Tr[ns(145)] =   1.00000
     eigenvalues:
       0.167  0.167  0.167
     eigenvectors (columns):
       1.000  0.000  0.000
       0.000  1.000  0.000
       0.000  0.000  1.000
     occupation matrix ns (before diag.):
       0.167  0.000  0.000
       0.000  0.167  0.000
       0.000  0.000  0.167
     ------------------------ ATOM  146 ------------------------
     Tr[ns(146)] =   1.00000
     eigenvalues:
       0.167  0.167  0.167
     eigenvectors (columns):
       1.000  0.000  0.000
       0.000  1.000  0.000
       0.000  0.000  1.000
     occupation matrix ns (before diag.):
       0.167  0.000  0.000
       0.000  0.167  0.000
       0.000  0.000  0.167
     ------------------------ ATOM  147 ------------------------
     Tr[ns(147)] =   1.00000
     eigenvalues:
       0.167  0.167  0.167
     eigenvectors (columns):
       1.000  0.000  0.000
       0.000  1.000  0.000
       0.000  0.000  1.000
     occupation matrix ns (before diag.):
       0.167  0.000  0.000
       0.000  0.167  0.000
       0.000  0.000  0.167
     ------------------------ ATOM  148 ------------------------
     Tr[ns(148)] =   1.00000
     eigenvalues:
       0.167  0.167  0.167
     eigenvectors (columns):
       1.000  0.000  0.000
       0.000  1.000  0.000
       0.000  0.000  1.000
     occupation matrix ns (before diag.):
       0.167  0.000  0.000
       0.000  0.167  0.000
       0.000  0.000  0.167
     ------------------------ ATOM  149 ------------------------
     Tr[ns(149)] =   3.00000
     eigenvalues:
       0.500  0.500  0.500
     eigenvectors (columns):
       1.000  0.000  0.000
       0.000  1.000  0.000
       0.000  0.000  1.000
     occupation matrix ns (before diag.):
       0.500  0.000  0.000
       0.000  0.500  0.000
       0.000  0.000  0.500
     ------------------------ ATOM  150 ------------------------
     Tr[ns(150)] =   3.00000
     eigenvalues:
       0.500  0.500  0.500
     eigenvectors (columns):
       1.000  0.000  0.000
       0.000  1.000  0.000
       0.000  0.000  1.000
     occupation matrix ns (before diag.):
       0.500  0.000  0.000
       0.000  0.500  0.000
       0.000  0.000  0.500
     ------------------------ ATOM  151 ------------------------
     Tr[ns(151)] =   3.00000
     eigenvalues:
       0.500  0.500  0.500
     eigenvectors (columns):
       1.000  0.000  0.000
       0.000  1.000  0.000
       0.000  0.000  1.000
     occupation matrix ns (before diag.):
       0.500  0.000  0.000
       0.000  0.500  0.000
       0.000  0.000  0.500
     ------------------------ ATOM  152 ------------------------
[...]
   -19.7077 -19.7077 -19.7076 -19.7075 -19.7075 -19.7072 -19.7070 -19.7070
   -19.7068 -19.7067 -19.7066 -19.7065 -19.7065 -19.7064 -19.7063 -19.7062
   -19.7060 -19.7058 -19.7057 -19.7055 -19.7054 -19.7053 -19.7051 -19.7045
   -19.7044 -19.7043 -19.7041 -19.7041 -19.7041 -19.7040 -19.7039 -19.7039
   -19.7037 -19.7037 -19.7036 -19.7035 -19.7033 -19.7031 -19.7030 -19.7029
   -19.7026 -19.7025 -19.7025 -19.7023 -19.7022 -19.7021 -19.7021 -19.7017
   -19.7016 -19.7015 -19.7013 -19.7008 -19.7008 -19.7007 -19.7005 -19.7005
   -19.7005 -19.7004 -19.7000 -19.6999 -19.6995 -19.6993 -19.6993 -19.6992
   -19.6992 -19.6991 -19.6986 -19.6985 -19.6985 -19.6984 -19.6982 -19.6981
   -19.6979 -19.6979 -19.6976 -19.6976 -19.6976 -19.6973 -19.6973 -19.6972
   -19.6972 -19.6970 -19.6970 -19.6967 -19.6966 -19.6963 -19.6962 -19.6962
   -19.6959 -19.6956 -19.6953 -19.6952 -19.6950 -19.6949 -19.6948 -19.6948
   -19.6947 -19.6946 -19.6944 -19.6943 -19.6941 -19.6938 -19.6937 -19.6935
   -19.6930 -19.6926 -19.6924 -19.6924 -19.6923 -19.6921 -19.6920 -19.6918
   -19.6916 -19.6915 -19.6914 -19.6913 -19.6912 -19.6911 -19.6908 -19.6906
   -19.6903 -19.6903 -19.6903 -19.6899 -19.6895 -19.6895 -19.6892 -19.6891
   -19.6890 -19.6888 -19.6887 -19.6885 -19.6885 -19.6881 -19.6879 -19.6877
   -19.6875 -19.6875 -19.6871 -19.6865 -19.6861 -19.6860 -19.6857 -19.6856
   -19.6854 -19.6853 -19.6851 -19.6850 -19.6846 -19.6844 -19.6837 -19.6836
   -19.6835 -19.6833 -19.6832 -19.6831 -19.6826 -19.6826 -19.6822 -19.6819
   -19.6816 -19.6816 -19.6811 -19.6810 -19.6797 -19.6791 -19.6790 -19.6789
   -19.6788 -19.6778 -19.6772 -19.6768 -19.6768 -19.6767 -19.6762 -19.6759
   -19.6758 -19.6749 -19.6745 -19.6742 -19.6737 -19.6735 -19.6731 -19.6727
   -19.6723 -19.6718 -19.6715 -19.6715 -19.6695 -19.6690 -19.6688 -19.6674
   -19.6665 -19.6665 -19.6661 -19.6658 -19.6656 -19.6626 -19.6604 -19.6563
   -19.6549 -19.6540 -19.6411 -19.6311  -7.5469  -7.5410  -7.5396  -7.4941
    -7.4895  -7.4546  -7.4493  -7.4480  -7.4445  -7.4349  -7.4323  -7.4314
    -7.4292  -7.4260  -7.4216  -7.4202  -7.4170  -7.4140  -7.4138  -7.4133
    -7.4103  -7.4094  -7.4090  -7.4086  -7.4072  -7.4043  -7.4037  -7.4034
    -7.4028  -7.4015  -7.4013  -7.3984  -7.3968  -7.3953  -7.3949  -7.3946
    -7.3942  -7.3935  -7.3909  -7.3905  -7.3901  -7.3897  -7.3891  -7.3882
    -7.3874  -7.3869  -7.3862  -7.3855  -7.3852  -7.3843  -7.3842  -7.3829
    -7.3826  -7.3816  -7.3815  -7.3807  -7.3795  -7.3792  -7.3781  -7.3774
    -7.3762  -7.3757  -7.3754  -7.3749  -7.3739  -7.3731  -7.3727  -7.3723
    -7.3705  -7.3699  -7.3695  -7.3694  -7.3689  -7.3681  -7.3680  -7.3678
    -7.3668  -7.3644  -7.3640  -7.3633  -7.3630  -7.3628  -7.3616  -7.3614
    -7.3611  -7.3606  -7.3588  -7.3581  -7.3557  -7.3556  -7.3549  -7.3547
    -7.3542  -7.3538  -7.3522  -7.3519  -7.3509  -7.3504  -7.3496  -7.3490
    -7.3487  -7.3480  -7.3479  -7.3469  -7.3462  -7.3456  -7.3449  -7.3444
    -7.3438  -7.3432  -7.3426  -7.3422  -7.3415  -7.3408  -7.3405  -7.3400
    -7.3398  -7.3395  -7.3392  -7.3388  -7.3387  -7.3383  -7.3375  -7.3367
    -7.3363  -7.3358  -7.3352  -7.3350  -7.3346  -7.3342  -7.3340  -7.3332
    -7.3328  -7.3324  -7.3317  -7.3316  -7.3312  -7.3310  -7.3309  -7.3297
    -7.3289  -7.3285  -7.3279  -7.3273  -7.3269  -7.3267  -7.3264  -7.3256
    -7.3250  -7.3244  -7.3240  -7.3235  -7.3232  -7.3225  -7.3221  -7.3214
    -7.3210  -7.3205  -7.3201  -7.3194  -7.3187  -7.3183  -7.3179  -7.3175
    -7.3169  -7.3167  -7.3162  -7.3152  -7.3151  -7.3144  -7.3141  -7.3139
    -7.3138  -7.3131  -7.3129  -7.3124  -7.3121  -7.3112  -7.3109  -7.3098
    -7.3092  -7.3092  -7.3084  -7.3074  -7.3073  -7.3067  -7.3060  -7.3057
    -7.3054  -7.3051  -7.3043  -7.3042  -7.3033  -7.3029  -7.3025  -7.3020
    -7.3015  -7.3014  -7.3009  -7.2997  -7.2996  -7.2987  -7.2984  -7.2976
    -7.2975  -7.2972  -7.2969  -7.2961  -7.2960  -7.2950  -7.2948  -7.2946
    -7.2943  -7.2939  -7.2935  -7.2932  -7.2929  -7.2916  -7.2915  -7.2911
    -7.2905  -7.2903  -7.2896  -7.2894  -7.2890  -7.2886  -7.2883  -7.2880
    -7.2874  -7.2873  -7.2869  -7.2866  -7.2863  -7.2862  -7.2853  -7.2848
    -7.2845  -7.2838  -7.2835  -7.2832  -7.2829  -7.2826  -7.2823  -7.2817
    -7.2815  -7.2812  -7.2811  -7.2808  -7.2800  -7.2799  -7.2793  -7.2793
    -7.2786  -7.2780  -7.2779  -7.2774  -7.2772  -7.2770  -7.2768  -7.2764
    -7.2761  -7.2752  -7.2750  -7.2746  -7.2743  -7.2740  -7.2735  -7.2726
    -7.2723  -7.2719  -7.2718  -7.2716  -7.2713  -7.2709  -7.2706  -7.2704
    -7.2696  -7.2694  -7.2686  -7.2683  -7.2682  -7.2680  -7.2676  -7.2671
    -7.2669  -7.2666  -7.2664  -7.2662  -7.2655  -7.2648  -7.2647  -7.2640
    -7.2637  -7.2632  -7.2630  -7.2627  -7.2625  -7.2620  -7.2617  -7.2611
    -7.2606  -7.2601  -7.2595  -7.2591  -7.2591  -7.2585  -7.2581  -7.2580
    -7.2578  -7.2569  -7.2564  -7.2559  -7.2558  -7.2553  -7.2550  -7.2545
    -7.2543  -7.2538  -7.2535  -7.2531  -7.2528  -7.2523  -7.2519  -7.2517
    -7.2515  -7.2511  -7.2510  -7.2506  -7.2503  -7.2497  -7.2495  -7.2494
    -7.2492  -7.2490  -7.2488  -7.2486  -7.2479  -7.2477  -7.2469  -7.2465
    -7.2463  -7.2460  -7.2457  -7.2453  -7.2448  -7.2444  -7.2442  -7.2438
    -7.2435  -7.2433  -7.2429  -7.2426  -7.2425  -7.2423  -7.2415  -7.2412
    -7.2406  -7.2401  -7.2393  -7.2390  -7.2386  -7.2385  -7.2384  -7.2380
    -7.2376  -7.2370  -7.2369  -7.2368  -7.2364  -7.2359  -7.2356  -7.2353
    -7.2352  -7.2347  -7.2347  -7.2346  -7.2345  -7.2342  -7.2338  -7.2334
    -7.2331  -7.2328  -7.2326  -7.2324  -7.2322  -7.2319  -7.2310  -7.2306
    -7.2300  -7.2299  -7.2297  -7.2287  -7.2284  -7.2284  -7.2278  -7.2277
    -7.2271  -7.2262  -7.2257  -7.2253  -7.2249  -7.2242  -7.2235  -7.2234
    -7.2229  -7.2223  -7.2219  -7.2213  -7.2209  -7.2207  -7.2204  -7.2203
    -7.2199  -7.2193  -7.2189  -7.2187  -7.2183  -7.2183  -7.2179  -7.2174
    -7.2169  -7.2165  -7.2158  -7.2152  -7.2147  -7.2139  -7.2134  -7.2125
    -7.2124  -7.2122  -7.2119  -7.2113  -7.2099  -7.2097  -7.2089  -7.2087
    -7.2083  -7.2081  -7.2076  -7.2067  -7.2064  -7.2063  -7.2057  -7.2054
    -7.2049  -7.2049  -7.2047  -7.2041  -7.2038  -7.2032  -7.2030  -7.2026
    -7.2024  -7.2021  -7.2013  -7.2011  -7.2007  -7.2003  -7.1996  -7.1989
    -7.1987  -7.1961  -7.1956  -7.1950  -7.1943  -7.1938  -7.1933  -7.1924
    -7.1923  -7.1920  -7.1907  -7.1904  -7.1902  -7.1893  -7.1886  -7.1878
    -7.1871  -7.1866  -7.1859  -7.1854  -7.1847  -7.1846  -7.1839  -7.1832
    -7.1826  -7.1815  -7.1809  -7.1804  -7.1799  -7.1797  -7.1793  -7.1781
    -7.1778  -7.1770  -7.1765  -7.1759  -7.1758  -7.1748  -7.1745  -7.1738
    -7.1729  -7.1728  -7.1720  -7.1711  -7.1709  -7.1704  -7.1693  -7.1683
    -7.1679  -7.1646  -7.1639  -7.1634  -7.1633  -7.1625  -7.1621  -7.1588
    -7.1549  -7.1548  -7.1543  -7.1539  -7.1503  -7.1406  -7.1373  -7.1372
    -7.1366  -7.1358  -7.1352  -7.1350  -7.1346  -7.1345  -7.1344  -7.1343
    -7.1324  -7.1298  -7.1184  -7.1165  -7.1113  -7.1104  -7.0913  -7.0904
    -3.4852  -3.4413  -3.3923  -3.3562  -3.2913  -3.2568  -3.2327  -3.1750
    -3.1301  -3.1022  -3.0688  -3.0449  -2.9885  -2.9272  -2.9116  -2.8812
    -2.8136  -2.8049  -2.7925  -2.7464  -2.7186  -2.6935  -2.6635  -2.6087
    -2.5997  -2.5527  -2.5451  -2.5135  -2.4633  -2.4319  -2.4121  -2.3933
    -2.3894  -2.3563  -2.3380  -2.3047  -2.3017  -2.2719  -2.2468  -2.2108
    -2.1937  -2.1571  -2.1114  -2.1066  -2.0997  -2.0665  -2.0586  -2.0378
    -1.9989  -1.9830  -1.9694  -1.9670  -1.9412  -1.9084  -1.8882  -1.8836
    -1.8365  -1.7832  -1.7574  -1.7180  -1.6757  -1.6571  -1.6393  -1.6214
    -1.5815  -1.5712  -1.5438  -1.5369  -1.5198  -1.5062  -1.4754  -1.4712
    -1.4544  -1.4518  -1.4332  -1.4199  -1.4012  -1.3917  -1.3842  -1.3774
    -1.2984  -1.2625  -1.2370  -1.2270  -1.2152  -1.1955  -1.1805  -1.1534
    -1.1396  -1.1295  -1.1267  -1.0924  -1.0692  -1.0528  -1.0470  -1.0321
    -0.9211  -0.8933  -0.8917  -0.8581  -0.8259  -0.8153  -0.8001  -0.7902
    -0.7663  -0.7432  -0.7001  -0.6603  -0.2901  -0.2441  -0.1649  -0.0949
     0.0605   0.0877   0.1059   0.1603   0.1745   0.1895   0.2259   0.2455
     0.2637   0.2879   0.3067   0.3153   0.3392   0.3583   0.3693   0.3977
     0.4057   0.4542   0.4682   0.4739   0.5209   0.5374   0.5441   0.5959
     0.6074   0.6379   0.6443   0.6653   0.6739   0.6743   0.6946   0.7014
     0.7199   0.7215   0.7419   0.7497   0.7627   0.7777   0.7809   0.7863
     0.7929   0.8043   0.8094   0.8291   0.8379   0.8390   0.8547   0.8710
     0.8849   0.8865   0.8981   0.9317   0.9401   0.9502   0.9672   0.9697
     1.5051   1.5353   1.5656   1.5973   1.6251   1.6342   1.6754   1.7267
     1.7429   1.7561   1.7733   1.7819   1.8356   1.8561   1.8812   1.8956
     1.9122   1.9292   1.9504   1.9708   1.9937   1.9977   2.0072   2.0168
     2.0331   2.0441   2.0568   2.0734   2.8979   2.9328   2.9778   3.0014
     3.0222   3.0336   3.0651   3.0715   3.0965   3.1008   3.1141   3.1365
     3.1554   3.1759   3.1777   3.2191   3.3201   3.3295   3.3516   3.3598
     3.3792   3.3831   3.4216   3.4336   3.4477   3.4512   3.4766   3.5040
     3.5169   3.5291   3.5497   3.5714   3.5794   3.5910   3.6061   3.6328
     3.6398   3.6485   3.6559   3.6943   3.7082   3.7175   3.7322   3.7527
     3.7650   3.7714   3.7857   3.7992   3.8133   3.8253   3.8358   3.8446
     3.8666   3.8764   3.8879   3.9097   3.9229   3.9294   3.9407   3.9538
     3.9778   3.9803   3.9993   4.0091   4.2173   4.2500   4.2646   4.3107
     4.3200   4.3546   4.3622   4.3776   4.4040   4.4089   4.4488   4.4518
     4.4861   4.4888   4.5197   4.5211   4.5308   4.5613   4.5663   4.5993
     4.6042   4.6174   4.6324   4.6442   4.6590   4.6744   4.6966   4.7132
     4.7231   4.7376   4.7470   4.7685   4.7765   4.8016   4.8098   4.8255
     4.8571   4.8723   4.8836   4.8968   4.9157   4.9263   4.9291   4.9458
     4.9636   4.9715   4.9879   4.9951   5.0137   5.0287   5.0484   5.0640
     5.0673   5.0854   5.0937   5.1204   5.1377   5.1410   5.1444   5.1552
     5.1638   5.1754   5.1966   5.2195   5.2269   5.2480   5.2551   5.2697
     5.2760   5.2875   5.3048   5.3213   5.3313   5.3388   5.3472   5.3679
     5.3775   5.3842   5.4087   5.4186   5.4356   5.4427   5.4539   5.4826
     5.4904   5.5187   5.5417   5.5450   5.5764   5.5941   5.6041   5.6095
     5.6261   5.6476   5.6668   5.6825   5.6931   5.6999   5.7116   5.7234
     5.7293   5.7533   5.7595   5.7709   5.7760   5.7947   5.8072   5.8200
     5.8359   5.8497   5.8533   5.8738   5.9308   5.9479   5.9795   5.9957
     6.0123   6.0583   6.0727   6.0976   6.1066   6.1228   6.1483   6.1721
     6.1921   6.2313   6.2534   6.2600   6.2744   6.2846   6.2935   6.3206
     6.3242   6.3480   6.3591   6.3781   6.3876   6.4078   6.4312   6.4425
     6.4562   6.4617   6.4706   6.4809   6.4851   6.5205   6.5338   6.5400
     6.5787   6.6066   6.6212   6.6510   6.6549   6.6730   6.6777   6.6829
     6.7127   6.7145   6.7282   6.7381   6.7558   6.7752   6.7831   6.7979
     6.9082   6.9347   6.9762   7.0020   7.4368   7.4770   7.5176   7.5529
     9.1179   9.1396   9.2161   9.2480   9.2719   9.2888   9.3398   9.3593
     9.4071   9.4330   9.4379   9.4668   9.4941   9.5138   9.5218   9.5368
     9.5475   9.5507   9.5562   9.5686   9.5775   9.5975   9.6036   9.6128
     9.6467   9.6724   9.6833   9.7105   9.7157   9.7260   9.7521   9.7732
     9.7899   9.8204   9.8264   9.8424   9.8501   9.8638   9.8739   9.8863
     9.8997   9.9069   9.9284   9.9401   9.9583   9.9733   9.9822   9.9929
    10.0042  10.0169  10.0307  10.0343  10.0475  10.0588  10.0717  10.1005
    10.1066  10.1374  10.1385  10.1565  10.1645  10.1802  10.1819  10.2110
    10.2347  10.2414  10.2533  10.2646  10.2661  10.2697  10.2797  10.2885
    10.3006  10.3139  10.3202  10.3256  10.3294  10.3374  10.3504  10.3610
    10.3727  10.3778  10.3918  10.4172  10.4456  10.4538  10.4694  10.4777
    10.5038  10.5147  10.5249  10.5286  10.5396  10.5596  10.5756  10.5793
    10.5970  10.6106  10.6135  10.6231  10.6282  10.6387  10.6637  10.6753
    10.6951  10.7052  10.7310  10.7428  11.0716  11.0832  11.1050  11.1357
    11.2407  11.2798  11.2998  11.3039  11.3329  11.3525  11.3617  11.3679
    11.3865  11.3884  11.4102  11.4298  11.4467  11.4618  11.4753  11.4943
    11.5079  11.5134  11.5337  11.5409  11.5448  11.5545  11.5689  11.5770
    11.5838  11.5883  11.5915  11.5930  11.6090  11.6183  11.6329  11.6343
    11.6563  11.6598  11.6646  11.6723  11.6882  11.7070  11.7188  11.7435
    11.8899  11.9030  11.9198  11.9228  11.9374  11.9460  11.9508  11.9614
    11.9812  11.9835  11.9868  12.0005  12.0132  12.0173  12.0403  12.0493
    12.1521  12.1586  12.1739  12.1812  12.1906  12.2045  12.2147  12.2252
    12.2280  12.2394  12.2442  12.2561  12.2666  12.2738  12.2777  12.2899
    12.2947  12.3027  12.3066  12.3311  12.3334  12.3407  12.3481  12.3557
    12.3651  12.3698  12.3735  12.3839  12.3902  12.4067  12.4189  12.4300
    12.4319  12.4393  12.4492  12.4524  12.4600  12.4733  12.4791  12.4898
    12.5006  12.5058  12.5089  12.5096  12.5248  12.5317  12.5423  12.5542
    12.5680  12.5753  12.5865  12.6071  12.6497  12.6585  12.6692  12.6833
    12.6983  12.7026  12.7227  12.7401  12.8576  12.8659  12.8682  12.8807
    12.8936  12.9137  12.9320  12.9364  12.9827  12.9910  13.0039  13.0288
    13.0366  13.0537  13.0558  13.0645  13.0721  13.0765  13.0896  13.0942
    13.1026  13.1096  13.1190  13.1234  13.1287  13.1466  13.1544  13.1578
    13.1722  13.1761  13.1854  13.1932  13.1990  13.2063  13.2160  13.2207
    13.2302  13.2401  13.2564  13.2675  13.2851  13.3145  13.3277  13.3382
    13.3419  13.3628  13.3753  13.3913  13.3963  13.4086  13.4154  13.4272
    13.4522  13.4604  13.4809  13.4875  13.5747  13.6043  13.6234  13.6291
    13.6344  13.6447  13.6525  13.6688  13.6807  13.6925  13.6971  13.7028
    13.7072  13.7185  13.7300  13.7330  13.7450  13.7454  13.7694  13.7748
    13.7756  13.7816  13.7863  13.7964  13.8094  13.8172  13.8342  13.8352
    13.8422  13.8582  13.8607  13.8659  13.8771  13.8854  13.8895  13.9040
    13.9126  13.9221  13.9251  13.9390  13.9409  13.9579  13.9681  13.9743
    13.9834  13.9865  14.0030  14.0073  14.0102  14.0223  14.0244  14.0351
    14.0454  14.0516  14.0650  14.0692  14.0764  14.0783  14.0892  14.1013
    14.1070  14.1245  14.1322  14.1365  14.1459  14.1575  14.1669  14.1792
    14.3339  14.3459  14.3499  14.3668  14.3833  14.4127  14.4306  14.4376
    14.6047  14.6239  14.6366  14.6670  14.6983  14.7087  14.7089  14.7551
    14.8664  14.8768  14.9048  14.9056  14.9189  14.9445  14.9489  14.9655
    14.9714  14.9811  14.9874  15.0062  15.0106  15.0228  15.0482  15.0618
    15.2021  15.2215  15.2336  15.2424  15.2595  15.2735  15.2836  15.3118
    15.3234  15.3289  15.3358  15.3554  15.3597  15.3777  15.3925  15.4151
    15.4254  15.4303  15.4320  15.4449  15.4563  15.4637  15.4722  15.4742
    15.4995  15.5082  15.5208  15.5350  15.5635  15.5771  15.5961  15.5984
    15.6087  15.6103  15.6312  15.6346  15.6444  15.6549  15.6796  15.6900
    15.6907  15.7142  15.7507  15.7843  15.8200  15.8398  15.8484  15.8576
    15.8665  15.8843  15.8908  15.9028  15.9265  15.9697  15.9791  15.9975
    16.0342  16.0435  16.0614  16.0720  16.1108  16.1459  16.1540  16.1625
    16.1784  16.1885  16.2022  16.2095  16.2130  16.2199  16.2300  16.2346
    16.2369  16.2535  16.2603  16.2690  16.2752  16.2877  16.2984  16.3193
    16.3538  16.3553  16.3626  16.3847  16.4318  16.4485  16.4891  16.4981
    16.5091  16.5227  16.5272  16.5425  16.5511  16.5585  16.5653  16.5759
    16.5820  16.5879  16.5928  16.5989  16.6080  16.6132  16.6205  16.6327
    16.6450  16.6473  16.6528  16.6663  16.6699  16.6741  16.6931  16.6991
    16.7082  16.7256  16.7281  16.7498  16.7534  16.7570  16.7776  16.7818
    16.7898  16.8118  16.8318  16.8333  16.8388  16.8489  16.8562  16.8672
    16.8854  16.8901  16.9043  16.9075  16.9231  16.9355  16.9404  16.9607
    16.9841  17.0022  17.0082  17.0145  17.0217  17.0273  17.0354  17.0529
    17.0559  17.0623  17.0674  17.0776  17.0898  17.0929  17.0952  17.0973
    17.1108  17.1143  17.1199  17.1204  17.1312  17.1340  17.1387  17.1406
    17.1510  17.1576  17.1705  17.1780  17.1826  17.1846  17.1959  17.2016
    17.2129  17.2247  17.2297  17.2380  17.2449  17.2590  17.2758  17.2870
    17.3609  17.3624  17.3781  17.3907  17.4365  17.4601  17.4879  17.5302
    17.5935  17.6291  17.6328  17.6396  17.6545  17.6644  17.6737  17.6807
    17.6928  17.6933  17.7015  17.7102  17.7256  17.7283  17.7490  17.7513
    17.7551  17.7623  17.7686  17.7799  17.7921  17.7956  17.7983  17.8172
    17.8655  17.8826  17.8984  17.9050  17.9321  17.9526  17.9650  17.9724
    17.9845  17.9949  18.0177  18.0292  18.0449  18.0730  18.0814  18.0854
    18.0997  18.1174  18.1425  18.1534  18.1692  18.1993  18.2045  18.2133
    18.2367  18.2487  18.2594  18.2967  18.3147  18.3315  18.3441  18.3855
    18.3946  18.4039  18.4204  18.4283  18.4354  18.4481  18.4519  18.4601
    18.4659  18.4686  18.4841  18.4903  18.5038  18.5175  18.5207  18.5367
    18.5519  18.5545  18.5897  18.5944  18.5963  18.6158  18.6173  18.6326

     highest occupied, lowest unoccupied level (ev):     7.6220    8.3533

!    total energy              =  -36980.90861096 Ry
     estimated scf accuracy    <       0.00000378 Ry

     The total energy is the sum of the following terms:
     one-electron contribution =  -18763.48455371 Ry
     hartree contribution      =   11373.48195556 Ry
     xc contribution           =   -9493.23864013 Ry
     ewald contribution        =  -20098.39505123 Ry
     Hubbard energy            =       0.72767855 Ry

     convergence has been achieved in  12 iterations

     Writing all to output data dir ./tmp_In0.0Ga1.0As0.25Sb0.75_cube_3x3x3.4/In0.0Ga1.0As0.25Sb0.75_cube_3x3x3.4.save/ :
     XML data file, charge density, pseudopotentials, collected wavefunctions

     init_run     :    241.69s CPU    244.29s WALL (       1 calls)
     electrons    :   9055.50s CPU   9076.90s WALL (       1 calls)

     Called by init_run:
     wfcinit      :    231.20s CPU    233.51s WALL (       1 calls)
     potinit      :      2.08s CPU      2.13s WALL (       1 calls)
     hinit0       :      1.74s CPU      1.77s WALL (       1 calls)

     Called by electrons:
     c_bands      :   8777.33s CPU   8797.39s WALL (      13 calls)
     sum_band     :    273.01s CPU    273.60s WALL (      13 calls)
     v_of_rho     :      3.43s CPU      3.56s WALL (      13 calls)
     mix_rho      :      0.80s CPU      0.83s WALL (      13 calls)

     Called by c_bands:
     init_us_2    :     33.37s CPU     33.91s WALL (      28 calls)
     cegterg      :   8440.56s CPU   8459.21s WALL (      13 calls)

     Called by *egterg:
     cdiaghg      :    789.00s CPU    789.65s WALL (     116 calls)
     h_psi        :   4986.99s CPU   4997.40s WALL (     118 calls)
     g_psi        :      4.10s CPU      4.11s WALL (     104 calls)

     Called by h_psi:
     h_psi:calbec :    876.27s CPU    876.31s WALL (     118 calls)
     vloc_psi     :    677.81s CPU    679.38s WALL (     118 calls)
     add_vuspsi   :    868.34s CPU    870.89s WALL (     118 calls)
     vhpsi        :   2555.92s CPU   2556.09s WALL (     118 calls)

     General routines
     calbec       :   1129.75s CPU   1129.82s WALL (     250 calls)
     fft          :      3.15s CPU      3.27s WALL (     131 calls)
     ffts         :      0.20s CPU      0.21s WALL (      13 calls)
     fftw         :    678.13s CPU    679.79s WALL (  159932 calls)

     Parallel routines

     Hubbard U routines
     new_ns       :     63.12s CPU     63.13s WALL (      13 calls)
     vhpsi        :   2555.92s CPU   2556.09s WALL (     118 calls)

     PWSCF        :      2h35m CPU      2h36m WALL


   This run was terminated on:   3:47:41  13Jun2025            

=------------------------------------------------------------------------------=
   JOB DONE.
=------------------------------------------------------------------------------=
