
     Program PWSCF v.7.3.1 starts on 15May2025 at 14:38:11 

     This program is part of the open-source Quantum ESPRESSO suite
     for quantum simulation of materials; please cite
         "P. Giannozzi et al., J. Phys.:Condens. Matter 21 395502 (2009);
         "P. Giannozzi et al., J. Phys.:Condens. Matter 29 465901 (2017);
         "P. Giannozzi et al., J. Chem. Phys. 152 154105 (2020);
          URL http://www.quantum-espresso.org", 
     in publications or presentations arising from this work. More details at
     http://www.quantum-espresso.org/quote

     Parallel version (MPI), running on   512 processors

     MPI processes distributed on     4 nodes
     492014 MiB available memory on the printing compute node when the environment starts

     Reading input from In0.0Ga1.0As0.5Sb0.5_cube_3x3x3.0.scf.in
Warning: card &CELL ignored
Warning: card   CELL_DOFREE = 'ALL', ignored
Warning: card / ignored

     Current dimensions of program PWSCF are:
     Max number of different atomic species (ntypx) = 10
     Max number of k-points (npk) =  40000
     Max angular momentum in pseudopotentials (lmaxx) =  4

     K-points division:     npool     =       8
     R & G space division:  proc/nbgrp/npool/nimage =      64
     Subspace diagonalization in iterative solution of the eigenvalue problem:
     one sub-group per band group will be used
     custom distributed-memory algorithm (size of sub-group:  8*  8 procs)


     Parallelization info
     --------------------
     sticks:   dense  smooth     PW     G-vecs:    dense   smooth      PW
     Min         667     667    172               103873   103873   13568
     Max         668     668    173               103880   103880   13571
     Sum       42721   42721  11009              6648057  6648057  868407

     Using Slab Decomposition



     bravais-lattice index     =            1
     lattice parameter (alat)  =      33.4524  a.u.
     unit-cell volume          =   37435.2343 (a.u.)^3
     number of atoms/cell      =          216
     number of atomic types    =            4
     number of electrons       =      3024.00
     number of Kohn-Sham states=         2160
     kinetic-energy cutoff     =     120.0000  Ry
     charge density cutoff     =     480.0000  Ry
     scf convergence threshold =      1.0E-05
     mixing beta               =       0.6500
     number of iterations used =            8  plain     mixing
     Exchange-correlation= PBE
                           (   1   4   3   4   0   0   0)
     Hubbard projectors: atomic
     Hubbard parameters of DFT+U (Dudarev formulation) in eV:
     U(As-4p) =  5.8400
     U(Ga-4p) = -2.8000
     U(In-5p) = -1.0150
     U(Sb-5p) =  4.8900

     Internal variables: lda_plus_u =T, lda_plus_u_kind = 0

     celldm(1)=  33.452367  celldm(2)=   0.000000  celldm(3)=   0.000000
     celldm(4)=   0.000000  celldm(5)=   0.000000  celldm(6)=   0.000000

     crystal axes: (cart. coord. in units of alat)
               a(1) = (   1.000000   0.000000   0.000000 )  
               a(2) = (   0.000000   1.000000   0.000000 )  
               a(3) = (   0.000000   0.000000   1.000000 )  

     reciprocal axes: (cart. coord. in units 2 pi/alat)
               b(1) = (  1.000000  0.000000  0.000000 )  
               b(2) = (  0.000000  1.000000  0.000000 )  
               b(3) = (  0.000000  0.000000  1.000000 )  


     PseudoPot. # 1 for As read from file:
     /work/i254/i254/gentles/data/pseudos/As.pbe.NC-SR.standard.v0.5.UPF
     MD5 check sum: bfe1a874457ce592347346129958e7cf
     Pseudo is Norm-conserving + core correction, Zval = 15.0
     Generated using ONCVPSP code by D. R. Hamann
     Using radial grid of 1358 points,  6 beta functions with: 
                l(1) =   0
                l(2) =   0
                l(3) =   1
                l(4) =   1
                l(5) =   2
                l(6) =   2

     PseudoPot. # 2 for Ga read from file:
     /work/i254/i254/gentles/data/pseudos/Ga.pbe.NC-SR.standard.v0.5.UPF
     MD5 check sum: 2bb81bf6f0a8d9832cf3329850435ecf
     Pseudo is Norm-conserving + core correction, Zval = 13.0
     Generated using ONCVPSP code by D. R. Hamann
     Using radial grid of 1902 points,  6 beta functions with: 
                l(1) =   0
                l(2) =   0
                l(3) =   1
                l(4) =   1
                l(5) =   2
                l(6) =   2

     PseudoPot. # 3 for In read from file:
     /work/i254/i254/gentles/data/pseudos/In.pbe.NC-SR.standard.v0.5.UPF
     MD5 check sum: 835f4bf908c982ff75c88e16816a8d7f
     Pseudo is Norm-conserving + core correction, Zval = 13.0
     Generated using ONCVPSP code by D. R. Hamann
     Using radial grid of 1964 points,  6 beta functions with: 
                l(1) =   0
                l(2) =   0
                l(3) =   1
                l(4) =   1
                l(5) =   2
                l(6) =   2

     PseudoPot. # 4 for Sb read from file:
     /work/i254/i254/gentles/data/pseudos/Sb.pbe.NC-SR.standard.v0.5.UPF
     MD5 check sum: 127f69b6101c45666faeae1b5d611565
     Pseudo is Norm-conserving + core correction, Zval = 15.0
     Generated using ONCVPSP code by D. R. Hamann
     Using radial grid of 1434 points,  6 beta functions with: 
                l(1) =   0
                l(2) =   0
                l(3) =   1
                l(4) =   1
                l(5) =   2
                l(6) =   2

     atomic species   valence    mass     pseudopotential
     As               15.00    74.92160     As( 1.00)
     Ga               13.00    69.72300     Ga( 1.00)
     In               13.00   114.81800     In( 1.00)
     Sb               15.00   121.76000     Sb( 1.00)

     No symmetry found



   Cartesian axes

     site n.     atom                  positions (alat units)
         1        Ga     tau(   1) = (   0.0003940  -0.0004790   0.0106950  )
         2        Ga     tau(   2) = (   0.0111150   0.1667960   0.1700030  )
         3        Ga     tau(   3) = (   0.1690450   0.0079010   0.1724460  )
         4        Ga     tau(   4) = (   0.1629080   0.1620030   0.0074690  )
         5        As     tau(   5) = (   0.0849610   0.0814970   0.0886000  )
         6        As     tau(   6) = (   0.0872120   0.2509050   0.2515410  )
         7        As     tau(   7) = (   0.2515140   0.0866580   0.2531920  )
         8        Sb     tau(   8) = (   0.2506610   0.2500120   0.0887530  )
         9        Ga     tau(   9) = (  -0.0005050  -0.0033700   0.3437660  )
        10        Ga     tau(  10) = (   0.0043550   0.1607460   0.5020340  )
        11        Ga     tau(  11) = (   0.1576490  -0.0038810   0.4997630  )
        12        Ga     tau(  12) = (   0.1665130   0.1665130   0.3351910  )
        13        As     tau(  13) = (   0.0833960   0.0818460   0.4178040  )
        14        As     tau(  14) = (   0.0849430   0.2494100   0.5777200  )
        15        Sb     tau(  15) = (   0.2485260   0.0833230   0.5786980  )
        16        As     tau(  16) = (   0.2491100   0.2479390   0.4130270  )
        17        Ga     tau(  17) = (  -0.0063320  -0.0060230   0.6625490  )
        18        Ga     tau(  18) = (  -0.0010990   0.1659250   0.8339410  )
        19        Ga     tau(  19) = (   0.1676390  -0.0027800   0.8353210  )
        20        Ga     tau(  20) = (   0.1620450   0.1712200   0.6613090  )
        21        Sb     tau(  21) = (   0.0818250   0.0798370   0.7466630  )
        22        Sb     tau(  22) = (   0.0849870   0.2516020   0.9204500  )
        23        Sb     tau(  23) = (   0.2518160   0.0842870   0.9188930  )
        24        Sb     tau(  24) = (   0.2511950   0.2521470   0.7473170  )
        25        Ga     tau(  25) = (   0.0051770   0.3384000   0.0093250  )
        26        Ga     tau(  26) = (   0.0079840   0.5003040   0.1722640  )
        27        Ga     tau(  27) = (   0.1657690   0.3388120   0.1724500  )
        28        Ga     tau(  28) = (   0.1625280   0.5006050   0.0000540  )
        29        As     tau(  29) = (   0.0863730   0.4197300   0.0885850  )
        30        As     tau(  30) = (   0.0874570   0.5842220   0.2533410  )
        31        As     tau(  31) = (   0.2499700   0.4176260   0.2517640  )
        32        Sb     tau(  32) = (   0.2493560   0.5844830   0.0869300  )
        33        Ga     tau(  33) = (   0.0013990   0.3332130   0.3267800  )
        34        Ga     tau(  34) = (  -0.0071860   0.5047010   0.4921990  )
        35        Ga     tau(  35) = (   0.1710100   0.3293310   0.4986990  )
        36        Ga     tau(  36) = (   0.1744950   0.5051960   0.3300610  )
        37        Sb     tau(  37) = (   0.0864210   0.4186000   0.4132870  )
        38        Sb     tau(  38) = (   0.0824510   0.5857590   0.5783200  )
        39        As     tau(  39) = (   0.2498480   0.4176650   0.5764980  )
        40        As     tau(  40) = (   0.2528800   0.5858470   0.4127110  )
        41        Ga     tau(  41) = (   0.0055020   0.3295890   0.6601420  )
        42        Ga     tau(  42) = (   0.0055470   0.5074060   0.8348480  )
        43        Ga     tau(  43) = (   0.1740270   0.3381420   0.8392670  )
        44        Ga     tau(  44) = (   0.1710070   0.4961190   0.6586330  )
        45        Sb     tau(  45) = (   0.0869250   0.4163880   0.7494560  )
        46        As     tau(  46) = (   0.0832000   0.5868250   0.9181110  )
        47        As     tau(  47) = (   0.2476490   0.4220070   0.9211360  )
        48        Sb     tau(  48) = (   0.2508860   0.5829010   0.7504720  )
        49        Ga     tau(  49) = (   0.0042670   0.6723370  -0.0020940  )
        50        Ga     tau(  50) = (  -0.0026060   0.8341280   0.1593470  )
        51        Ga     tau(  51) = (   0.1622180   0.6706870   0.1716770  )
        52        Ga     tau(  52) = (   0.1654160   0.8285170   0.0066660  )
        53        As     tau(  53) = (   0.0822720   0.7499750   0.0855450  )
        54        Sb     tau(  54) = (   0.0827550   0.9155810   0.2507160  )
        55        As     tau(  55) = (   0.2507180   0.7455470   0.2519430  )
        56        Sb     tau(  56) = (   0.2521460   0.9159570   0.0905870  )
        57        Ga     tau(  57) = (   0.0056150   0.6630130   0.3368060  )
        58        Ga     tau(  58) = (   0.0008930   0.8302480   0.4973730  )
        59        Ga     tau(  59) = (   0.1678630   0.6663870   0.4885510  )
        60        Ga     tau(  60) = (   0.1669330   0.8233890   0.3306440  )
        61        As     tau(  61) = (   0.0838100   0.7484240   0.4146530  )
        62        As     tau(  62) = (   0.0764940   0.9136780   0.5806060  )
        63        Sb     tau(  63) = (   0.2486900   0.7492070   0.5807190  )
        64        Sb     tau(  64) = (   0.2486410   0.9163710   0.4123670  )
        65        Ga     tau(  65) = (  -0.0004000   0.6774510   0.6624170  )
        66        Ga     tau(  66) = (  -0.0065270   0.8317840   0.8275410  )
        67        Ga     tau(  67) = (   0.1577550   0.6675030   0.8310850  )
        68        Ga     tau(  68) = (   0.1569300   0.8340380   0.6633520  )
        69        As     tau(  69) = (   0.0788400   0.7534990   0.7485300  )
        70        Sb     tau(  70) = (   0.0797500   0.9131320   0.9193480  )
        71        Sb     tau(  71) = (   0.2513490   0.7457550   0.9172490  )
        72        Sb     tau(  72) = (   0.2505390   0.9150090   0.7459090  )
        73        Ga     tau(  73) = (   0.3378110   0.0029920   0.0063560  )
        74        Ga     tau(  74) = (   0.3378410   0.1630480   0.1736660  )
        75        Ga     tau(  75) = (   0.4958480  -0.0061650   0.1653380  )
        76        Ga     tau(  76) = (   0.4989520   0.1642840   0.0103930  )
        77        As     tau(  77) = (   0.4173090   0.0815410   0.0896850  )
        78        As     tau(  78) = (   0.4145150   0.2486030   0.2529630  )
        79        Sb     tau(  79) = (   0.5797220   0.0829370   0.2496110  )
        80        As     tau(  80) = (   0.5811600   0.2466140   0.0852990  )
        81        Ga     tau(  81) = (   0.3366100   0.0021060   0.3272030  )
        82        Ga     tau(  82) = (   0.3333160   0.1635510   0.4872970  )
        83        Ga     tau(  83) = (   0.5006710  -0.0007590   0.4896250  )
        84        Ga     tau(  84) = (   0.4957150   0.1703140   0.3357570  )
        85        As     tau(  85) = (   0.4172720   0.0819000   0.4102470  )
        86        Sb     tau(  86) = (   0.4165140   0.2481430   0.5793000  )
        87        Sb     tau(  87) = (   0.5835180   0.0831210   0.5817110  )
        88        As     tau(  88) = (   0.5813770   0.2487500   0.4150070  )
        89        Ga     tau(  89) = (   0.3384990   0.0042060   0.6665050  )
        90        Ga     tau(  90) = (   0.3385120   0.1639160   0.8283800  )
        91        Ga     tau(  91) = (   0.4969950   0.0022580   0.8297580  )
        92        Ga     tau(  92) = (   0.4990160   0.1657720   0.6732680  )
        93        As     tau(  93) = (   0.4177090   0.0830170   0.7496570  )
        94        Sb     tau(  94) = (   0.4188370   0.2506760   0.9178980  )
        95        Sb     tau(  95) = (   0.5848540   0.0817630   0.9184560  )
        96        As     tau(  96) = (   0.5846680   0.2464350   0.7498390  )
        97        Ga     tau(  97) = (   0.3275200   0.3388530  -0.0024200  )
        98        Ga     tau(  98) = (   0.3334250   0.5000520   0.1760550  )
        99        Ga     tau(  99) = (   0.4981140   0.3230950   0.1679180  )
       100        Ga     tau( 100) = (   0.5036420   0.5044480  -0.0001330  )
       101        Sb     tau( 101) = (   0.4174070   0.4172650   0.0849600  )
       102        As     tau( 102) = (   0.4140180   0.5879020   0.2500270  )
       103        Sb     tau( 103) = (   0.5788380   0.4177770   0.2489370  )
       104        As     tau( 104) = (   0.5799010   0.5850760   0.0879860  )
       105        Ga     tau( 105) = (   0.3264950   0.3296370   0.3286300  )
       106        Ga     tau( 106) = (   0.3281880   0.5062670   0.5001860  )
       107        Ga     tau( 107) = (   0.5038560   0.3314510   0.4931360  )
       108        Ga     tau( 108) = (   0.4927780   0.5068300   0.3292410  )
       109        Sb     tau( 109) = (   0.4112200   0.4174680   0.4144110  )
       110        As     tau( 110) = (   0.4136820   0.5875430   0.5787260  )
       111        Sb     tau( 111) = (   0.5853950   0.4167430   0.5819890  )
       112        Sb     tau( 112) = (   0.5833130   0.5886320   0.4153090  )
       113        Ga     tau( 113) = (   0.3303870   0.3399210   0.6587210  )
       114        Ga     tau( 114) = (   0.3333070   0.5026130   0.8460640  )
       115        Ga     tau( 115) = (   0.5092810   0.3330660   0.8330240  )
       116        Ga     tau( 116) = (   0.4932740   0.5056770   0.6590350  )
       117        Sb     tau( 117) = (   0.4160130   0.4190510   0.7519520  )
       118        As     tau( 118) = (   0.4194660   0.5846700   0.9210060  )
       119        As     tau( 119) = (   0.5808250   0.4178460   0.9194630  )
       120        Sb     tau( 120) = (   0.5810890   0.5853750   0.7467470  )
       121        Ga     tau( 121) = (   0.3431930   0.6665750   0.0047860  )
       122        Ga     tau( 122) = (   0.3363410   0.8268990   0.1753460  )
       123        Ga     tau( 123) = (   0.4986340   0.6668870   0.1693880  )
       124        Ga     tau( 124) = (   0.4998450   0.8335190   0.0115360  )
       125        As     tau( 125) = (   0.4185380   0.7498810   0.0902100  )
       126        As     tau( 126) = (   0.4177320   0.9130190   0.2511790  )
       127        As     tau( 127) = (   0.5808520   0.7494090   0.2507390  )
       128        As     tau( 128) = (   0.5824800   0.9167800   0.0861740  )
       129        Ga     tau( 129) = (   0.3344420   0.6671490   0.3331900  )
       130        Ga     tau( 130) = (   0.3367160   0.8308260   0.4939390  )
       131        Ga     tau( 131) = (   0.4954990   0.6724170   0.4999550  )
       132        Ga     tau( 132) = (   0.4998910   0.8313570   0.3334690  )
       133        As     tau( 133) = (   0.4167250   0.7500500   0.4132890  )
       134        Sb     tau( 134) = (   0.4212550   0.9146810   0.5814730  )
       135        As     tau( 135) = (   0.5835840   0.7495920   0.5793450  )
       136        As     tau( 136) = (   0.5816480   0.9116050   0.4157850  )
       137        Ga     tau( 137) = (   0.3394320   0.6673640   0.6659770  )
       138        Ga     tau( 138) = (   0.3367630   0.8273270   0.8275300  )
       139        Ga     tau( 139) = (   0.4921210   0.6672630   0.8330140  )
       140        Ga     tau( 140) = (   0.5048630   0.8242750   0.6664110  )
       141        As     tau( 141) = (   0.4187090   0.7478550   0.7471500  )
       142        Sb     tau( 142) = (   0.4171990   0.9145100   0.9180750  )
       143        Sb     tau( 143) = (   0.5799050   0.7498880   0.9200810  )
       144        Sb     tau( 144) = (   0.5864980   0.9165490   0.7487440  )
       145        Ga     tau( 145) = (   0.6702950  -0.0067590   0.0034330  )
       146        Ga     tau( 146) = (   0.6669450   0.1637830   0.1590780  )
       147        Ga     tau( 147) = (   0.8329320  -0.0029780   0.1605790  )
       148        Ga     tau( 148) = (   0.8266120   0.1618910   0.0050470  )
       149        As     tau( 149) = (   0.7481890   0.0780180   0.0833650  )
       150        Sb     tau( 150) = (   0.7481690   0.2504210   0.2493090  )
       151        Sb     tau( 151) = (   0.9206840   0.0788890   0.2489050  )
       152        Sb     tau( 152) = (   0.9174940   0.2490060   0.0886110  )
       153        Ga     tau( 153) = (   0.6608140  -0.0050510   0.3379750  )
       154        Ga     tau( 154) = (   0.6647650   0.1739980   0.4989430  )
       155        Ga     tau( 155) = (   0.8381600  -0.0055650   0.5033350  )
       156        Ga     tau( 156) = (   0.8325320   0.1624140   0.3318140  )
       157        Sb     tau( 157) = (   0.7488660   0.0799990   0.4205510  )
       158        As     tau( 158) = (   0.7481770   0.2450980   0.5835360  )
       159        As     tau( 159) = (   0.9174620   0.0790800   0.5816350  )
       160        Sb     tau( 160) = (   0.9183890   0.2473460   0.4172690  )
       161        Ga     tau( 161) = (   0.6759090  -0.0033790   0.6612270  )
       162        Ga     tau( 162) = (   0.6684490   0.1625370   0.8240030  )
       163        Ga     tau( 163) = (   0.8299190  -0.0051990   0.8276360  )
       164        Ga     tau( 164) = (   0.8299440   0.1575360   0.6593870  )
       165        As     tau( 165) = (   0.7515470   0.0786400   0.7450910  )
       166        Sb     tau( 166) = (   0.7458410   0.2499310   0.9165140  )
       167        Sb     tau( 167) = (   0.9141820   0.0792880   0.9187630  )
       168        Sb     tau( 168) = (   0.9150290   0.2462110   0.7432650  )
       169        Ga     tau( 169) = (   0.6550920   0.3331340   0.0023200  )
       170        Ga     tau( 170) = (   0.6647910   0.5096230   0.1695870  )
       171        Ga     tau( 171) = (   0.8382070   0.3410440   0.1742230  )
       172        Ga     tau( 172) = (   0.8339900   0.5006780   0.0010740  )
       173        Sb     tau( 173) = (   0.7465040   0.4180440   0.0861110  )
       174        As     tau( 174) = (   0.7488230   0.5861500   0.2525920  )
       175        As     tau( 175) = (   0.9217880   0.4219770   0.2511000  )
       176        Sb     tau( 176) = (   0.9204980   0.5857470   0.0864520  )
       177        Ga     tau( 177) = (   0.6598300   0.3312000   0.3366740  )
       178        Ga     tau( 178) = (   0.6727420   0.5071150   0.5019970  )
       179        Ga     tau( 179) = (   0.8290200   0.3272320   0.5052290  )
       180        Ga     tau( 180) = (   0.8379530   0.5056250   0.3291810  )
       181        Sb     tau( 181) = (   0.7523580   0.4173280   0.4154310  )
       182        As     tau( 182) = (   0.7525140   0.5902010   0.5796840  )
       183        Sb     tau( 183) = (   0.9146610   0.4182830   0.5828480  )
       184        As     tau( 184) = (   0.9145170   0.5880800   0.4132260  )
       185        Ga     tau( 185) = (   0.6660650   0.3225640   0.6659110  )
       186        Ga     tau( 186) = (   0.6604790   0.4958380   0.8364940  )
       187        Ga     tau( 187) = (   0.8360180   0.3339180   0.8327150  )
       188        Ga     tau( 188) = (   0.8279160   0.5082230   0.6633850  )
       189        Sb     tau( 189) = (   0.7471350   0.4159220   0.7480830  )
       190        Sb     tau( 190) = (   0.7473770   0.5843960   0.9175050  )
       191        Sb     tau( 191) = (   0.9220150   0.4185110   0.9175680  )
       192        Sb     tau( 192) = (   0.9174560   0.5897760   0.7492940  )
       193        Ga     tau( 193) = (   0.6606180   0.6629670   0.0069890  )
       194        Ga     tau( 194) = (   0.6568860   0.8329860   0.1688300  )
       195        Ga     tau( 195) = (   0.8291410   0.6656450   0.1727100  )
       196        Ga     tau( 196) = (   0.8390400   0.8374450  -0.0048050  )
       197        Sb     tau( 197) = (   0.7492130   0.7533510   0.0833300  )
       198        Sb     tau( 198) = (   0.7493000   0.9143210   0.2521170  )
       199        Sb     tau( 199) = (   0.9186620   0.7502340   0.2542090  )
       200        As     tau( 200) = (   0.9153960   0.9160170   0.0816720  )
       201        Ga     tau( 201) = (   0.6708230   0.6744120   0.3307530  )
       202        Ga     tau( 202) = (   0.6655990   0.8330920   0.4991210  )
       203        Ga     tau( 203) = (   0.8339230   0.6699930   0.4973140  )
       204        Ga     tau( 204) = (   0.8352480   0.8345000   0.3441330  )
       205        As     tau( 205) = (   0.7499420   0.7525180   0.4188270  )
       206        As     tau( 206) = (   0.7524230   0.9136870   0.5789180  )
       207        As     tau( 207) = (   0.9170280   0.7522460   0.5774910  )
       208        As     tau( 208) = (   0.9186960   0.9145440   0.4222650  )
       209        Ga     tau( 209) = (   0.6673570   0.6692160   0.6576550  )
       210        Ga     tau( 210) = (   0.6705920   0.8374150   0.8405460  )
       211        Ga     tau( 211) = (   0.8361930   0.6737960   0.8390160  )
       212        Ga     tau( 212) = (   0.8367510   0.8357430   0.6582150  )
       213        Sb     tau( 213) = (   0.7514630   0.7539440   0.7474610  )
       214        As     tau( 214) = (   0.7535490   0.9169930   0.9178670  )
       215        As     tau( 215) = (   0.9195510   0.7532840   0.9170120  )
       216        As     tau( 216) = (   0.9131030   0.9144050   0.7454130  )

     number of k points=     8
                       cart. coord. in units 2pi/alat
        k(    1) = (   0.0000000   0.0000000   0.0000000), wk =   0.2500000
        k(    2) = (   0.0000000   0.0000000  -0.5000000), wk =   0.2500000
        k(    3) = (   0.0000000  -0.5000000  -0.5000000), wk =   0.2500000
        k(    4) = (  -0.5000000  -0.5000000  -0.5000000), wk =   0.2500000
        k(    5) = (  -0.5000000   0.0000000   0.0000000), wk =   0.2500000
        k(    6) = (   0.0000000  -0.5000000   0.0000000), wk =   0.2500000
        k(    7) = (  -0.5000000   0.0000000   0.5000000), wk =   0.2500000
        k(    8) = (  -0.5000000   0.5000000   0.0000000), wk =   0.2500000

     Dense  grid:  6648057 G-vectors     FFT dimensions: ( 240, 240, 240)

     Estimated max dynamical RAM per process >       3.18 GB

     Estimated total dynamical RAM >    1616.61 GB

     Initial potential from superposition of free atoms

     starting charge    3023.6679, renormalised to    3024.0000

     STARTING HUBBARD OCCUPATIONS:

     =================== HUBBARD OCCUPATIONS ===================
     ------------------------ ATOM    1 ------------------------
     Tr[ns(  1)] =   1.00000
     eigenvalues:
       0.167  0.167  0.167
     eigenvectors (columns):
       1.000  0.000  0.000
       0.000  1.000  0.000
       0.000  0.000  1.000
     occupation matrix ns (before diag.):
       0.167  0.000  0.000
       0.000  0.167  0.000
       0.000  0.000  0.167
     ------------------------ ATOM    2 ------------------------
     Tr[ns(  2)] =   1.00000
     eigenvalues:
       0.167  0.167  0.167
     eigenvectors (columns):
       1.000  0.000  0.000
       0.000  1.000  0.000
       0.000  0.000  1.000
     occupation matrix ns (before diag.):
       0.167  0.000  0.000
       0.000  0.167  0.000
       0.000  0.000  0.167
     ------------------------ ATOM    3 ------------------------
     Tr[ns(  3)] =   1.00000
     eigenvalues:
       0.167  0.167  0.167
     eigenvectors (columns):
       1.000  0.000  0.000
       0.000  1.000  0.000
       0.000  0.000  1.000
     occupation matrix ns (before diag.):
       0.167  0.000  0.000
       0.000  0.167  0.000
       0.000  0.000  0.167
     ------------------------ ATOM    4 ------------------------
     Tr[ns(  4)] =   1.00000
     eigenvalues:
       0.167  0.167  0.167
     eigenvectors (columns):
       1.000  0.000  0.000
       0.000  1.000  0.000
       0.000  0.000  1.000
     occupation matrix ns (before diag.):
       0.167  0.000  0.000
       0.000  0.167  0.000
       0.000  0.000  0.167
     ------------------------ ATOM    5 ------------------------
     Tr[ns(  5)] =   3.00000
     eigenvalues:
       0.500  0.500  0.500
     eigenvectors (columns):
       1.000  0.000  0.000
       0.000  1.000  0.000
       0.000  0.000  1.000
     occupation matrix ns (before diag.):
       0.500  0.000  0.000
       0.000  0.500  0.000
       0.000  0.000  0.500
     ------------------------ ATOM    6 ------------------------
     Tr[ns(  6)] =   3.00000
     eigenvalues:
       0.500  0.500  0.500
     eigenvectors (columns):
       1.000  0.000  0.000
       0.000  1.000  0.000
       0.000  0.000  1.000
     occupation matrix ns (before diag.):
       0.500  0.000  0.000
       0.000  0.500  0.000
       0.000  0.000  0.500
     ------------------------ ATOM    7 ------------------------
     Tr[ns(  7)] =   3.00000
     eigenvalues:
       0.500  0.500  0.500
     eigenvectors (columns):
       1.000  0.000  0.000
       0.000  1.000  0.000
       0.000  0.000  1.000
     occupation matrix ns (before diag.):
       0.500  0.000  0.000
       0.000  0.500  0.000
       0.000  0.000  0.500
     ------------------------ ATOM    8 ------------------------
     Tr[ns(  8)] =   3.00000
     eigenvalues:
       0.500  0.500  0.500
     eigenvectors (columns):
       1.000  0.000  0.000
       0.000  1.000  0.000
       0.000  0.000  1.000
     occupation matrix ns (before diag.):
       0.500  0.000  0.000
       0.000  0.500  0.000
       0.000  0.000  0.500
     ------------------------ ATOM    9 ------------------------
     Tr[ns(  9)] =   1.00000
     eigenvalues:
       0.167  0.167  0.167
     eigenvectors (columns):
       1.000  0.000  0.000
       0.000  1.000  0.000
       0.000  0.000  1.000
     occupation matrix ns (before diag.):
       0.167  0.000  0.000
       0.000  0.167  0.000
       0.000  0.000  0.167
     ------------------------ ATOM   10 ------------------------
     Tr[ns( 10)] =   1.00000
     eigenvalues:
       0.167  0.167  0.167
     eigenvectors (columns):
       1.000  0.000  0.000
       0.000  1.000  0.000
       0.000  0.000  1.000
     occupation matrix ns (before diag.):
       0.167  0.000  0.000
       0.000  0.167  0.000
       0.000  0.000  0.167
     ------------------------ ATOM   11 ------------------------
     Tr[ns( 11)] =   1.00000
     eigenvalues:
       0.167  0.167  0.167
     eigenvectors (columns):
       1.000  0.000  0.000
       0.000  1.000  0.000
       0.000  0.000  1.000
     occupation matrix ns (before diag.):
       0.167  0.000  0.000
       0.000  0.167  0.000
       0.000  0.000  0.167
     ------------------------ ATOM   12 ------------------------
     Tr[ns( 12)] =   1.00000
     eigenvalues:
       0.167  0.167  0.167
     eigenvectors (columns):
       1.000  0.000  0.000
       0.000  1.000  0.000
       0.000  0.000  1.000
     occupation matrix ns (before diag.):
       0.167  0.000  0.000
       0.000  0.167  0.000
       0.000  0.000  0.167
     ------------------------ ATOM   13 ------------------------
     Tr[ns( 13)] =   3.00000
     eigenvalues:
       0.500  0.500  0.500
     eigenvectors (columns):
       1.000  0.000  0.000
       0.000  1.000  0.000
       0.000  0.000  1.000
     occupation matrix ns (before diag.):
       0.500  0.000  0.000
       0.000  0.500  0.000
       0.000  0.000  0.500
     ------------------------ ATOM   14 ------------------------
     Tr[ns( 14)] =   3.00000
     eigenvalues:
       0.500  0.500  0.500
     eigenvectors (columns):
       1.000  0.000  0.000
       0.000  1.000  0.000
       0.000  0.000  1.000
     occupation matrix ns (before diag.):
       0.500  0.000  0.000
       0.000  0.500  0.000
       0.000  0.000  0.500
     ------------------------ ATOM   15 ------------------------
     Tr[ns( 15)] =   3.00000
     eigenvalues:
       0.500  0.500  0.500
     eigenvectors (columns):
       1.000  0.000  0.000
       0.000  1.000  0.000
       0.000  0.000  1.000
     occupation matrix ns (before diag.):
       0.500  0.000  0.000
       0.000  0.500  0.000
       0.000  0.000  0.500
     ------------------------ ATOM   16 ------------------------
     Tr[ns( 16)] =   3.00000
     eigenvalues:
       0.500  0.500  0.500
     eigenvectors (columns):
       1.000  0.000  0.000
       0.000  1.000  0.000
       0.000  0.000  1.000
     occupation matrix ns (before diag.):
       0.500  0.000  0.000
       0.000  0.500  0.000
       0.000  0.000  0.500
     ------------------------ ATOM   17 ------------------------
     Tr[ns( 17)] =   1.00000
     eigenvalues:
       0.167  0.167  0.167
     eigenvectors (columns):
       1.000  0.000  0.000
       0.000  1.000  0.000
       0.000  0.000  1.000
     occupation matrix ns (before diag.):
       0.167  0.000  0.000
       0.000  0.167  0.000
       0.000  0.000  0.167
     ------------------------ ATOM   18 ------------------------
     Tr[ns( 18)] =   1.00000
     eigenvalues:
       0.167  0.167  0.167
     eigenvectors (columns):
       1.000  0.000  0.000
       0.000  1.000  0.000
       0.000  0.000  1.000
     occupation matrix ns (before diag.):
       0.167  0.000  0.000
       0.000  0.167  0.000
       0.000  0.000  0.167
     ------------------------ ATOM   19 ------------------------
     Tr[ns( 19)] =   1.00000
     eigenvalues:
       0.167  0.167  0.167
     eigenvectors (columns):
       1.000  0.000  0.000
       0.000  1.000  0.000
       0.000  0.000  1.000
     occupation matrix ns (before diag.):
       0.167  0.000  0.000
       0.000  0.167  0.000
       0.000  0.000  0.167
     ------------------------ ATOM   20 ------------------------
     Tr[ns( 20)] =   1.00000
     eigenvalues:
       0.167  0.167  0.167
     eigenvectors (columns):
       1.000  0.000  0.000
       0.000  1.000  0.000
       0.000  0.000  1.000
     occupation matrix ns (before diag.):
       0.167  0.000  0.000
       0.000  0.167  0.000
       0.000  0.000  0.167
     ------------------------ ATOM   21 ------------------------
     Tr[ns( 21)] =   3.00000
     eigenvalues:
       0.500  0.500  0.500
     eigenvectors (columns):
       1.000  0.000  0.000
       0.000  1.000  0.000
       0.000  0.000  1.000
     occupation matrix ns (before diag.):
       0.500  0.000  0.000
       0.000  0.500  0.000
       0.000  0.000  0.500
     ------------------------ ATOM   22 ------------------------
     Tr[ns( 22)] =   3.00000
     eigenvalues:
       0.500  0.500  0.500
     eigenvectors (columns):
       1.000  0.000  0.000
       0.000  1.000  0.000
       0.000  0.000  1.000
     occupation matrix ns (before diag.):
       0.500  0.000  0.000
       0.000  0.500  0.000
       0.000  0.000  0.500
     ------------------------ ATOM   23 ------------------------
     Tr[ns( 23)] =   3.00000
     eigenvalues:
       0.500  0.500  0.500
     eigenvectors (columns):
       1.000  0.000  0.000
       0.000  1.000  0.000
       0.000  0.000  1.000
     occupation matrix ns (before diag.):
       0.500  0.000  0.000
       0.000  0.500  0.000
       0.000  0.000  0.500
     ------------------------ ATOM   24 ------------------------
     Tr[ns( 24)] =   3.00000
     eigenvalues:
       0.500  0.500  0.500
     eigenvectors (columns):
       1.000  0.000  0.000
       0.000  1.000  0.000
       0.000  0.000  1.000
     occupation matrix ns (before diag.):
       0.500  0.000  0.000
       0.000  0.500  0.000
       0.000  0.000  0.500
     ------------------------ ATOM   25 ------------------------
     Tr[ns( 25)] =   1.00000
     eigenvalues:
       0.167  0.167  0.167
     eigenvectors (columns):
       1.000  0.000  0.000
       0.000  1.000  0.000
       0.000  0.000  1.000
     occupation matrix ns (before diag.):
       0.167  0.000  0.000
       0.000  0.167  0.000
       0.000  0.000  0.167
     ------------------------ ATOM   26 ------------------------
     Tr[ns( 26)] =   1.00000
     eigenvalues:
       0.167  0.167  0.167
     eigenvectors (columns):
       1.000  0.000  0.000
       0.000  1.000  0.000
       0.000  0.000  1.000
     occupation matrix ns (before diag.):
       0.167  0.000  0.000
       0.000  0.167  0.000
       0.000  0.000  0.167
     ------------------------ ATOM   27 ------------------------
     Tr[ns( 27)] =   1.00000
     eigenvalues:
       0.167  0.167  0.167
     eigenvectors (columns):
       1.000  0.000  0.000
       0.000  1.000  0.000
       0.000  0.000  1.000
     occupation matrix ns (before diag.):
       0.167  0.000  0.000
       0.000  0.167  0.000
       0.000  0.000  0.167
     ------------------------ ATOM   28 ------------------------
     Tr[ns( 28)] =   1.00000
     eigenvalues:
       0.167  0.167  0.167
     eigenvectors (columns):
       1.000  0.000  0.000
       0.000  1.000  0.000
       0.000  0.000  1.000
     occupation matrix ns (before diag.):
       0.167  0.000  0.000
       0.000  0.167  0.000
       0.000  0.000  0.167
     ------------------------ ATOM   29 ------------------------
     Tr[ns( 29)] =   3.00000
     eigenvalues:
       0.500  0.500  0.500
     eigenvectors (columns):
       1.000  0.000  0.000
       0.000  1.000  0.000
       0.000  0.000  1.000
     occupation matrix ns (before diag.):
       0.500  0.000  0.000
       0.000  0.500  0.000
       0.000  0.000  0.500
     ------------------------ ATOM   30 ------------------------
     Tr[ns( 30)] =   3.00000
     eigenvalues:
       0.500  0.500  0.500
     eigenvectors (columns):
       1.000  0.000  0.000
       0.000  1.000  0.000
       0.000  0.000  1.000
     occupation matrix ns (before diag.):
       0.500  0.000  0.000
       0.000  0.500  0.000
       0.000  0.000  0.500
     ------------------------ ATOM   31 ------------------------
     Tr[ns( 31)] =   3.00000
     eigenvalues:
       0.500  0.500  0.500
     eigenvectors (columns):
       1.000  0.000  0.000
       0.000  1.000  0.000
       0.000  0.000  1.000
     occupation matrix ns (before diag.):
       0.500  0.000  0.000
       0.000  0.500  0.000
       0.000  0.000  0.500
     ------------------------ ATOM   32 ------------------------
     Tr[ns( 32)] =   3.00000
     eigenvalues:
       0.500  0.500  0.500
     eigenvectors (columns):
       1.000  0.000  0.000
       0.000  1.000  0.000
       0.000  0.000  1.000
     occupation matrix ns (before diag.):
       0.500  0.000  0.000
       0.000  0.500  0.000
       0.000  0.000  0.500
     ------------------------ ATOM   33 ------------------------
     Tr[ns( 33)] =   1.00000
     eigenvalues:
       0.167  0.167  0.167
     eigenvectors (columns):
       1.000  0.000  0.000
       0.000  1.000  0.000
       0.000  0.000  1.000
     occupation matrix ns (before diag.):
       0.167  0.000  0.000
       0.000  0.167  0.000
       0.000  0.000  0.167
     ------------------------ ATOM   34 ------------------------
     Tr[ns( 34)] =   1.00000
     eigenvalues:
       0.167  0.167  0.167
     eigenvectors (columns):
       1.000  0.000  0.000
       0.000  1.000  0.000
       0.000  0.000  1.000
     occupation matrix ns (before diag.):
       0.167  0.000  0.000
       0.000  0.167  0.000
       0.000  0.000  0.167
     ------------------------ ATOM   35 ------------------------
     Tr[ns( 35)] =   1.00000
     eigenvalues:
       0.167  0.167  0.167
     eigenvectors (columns):
       1.000  0.000  0.000
       0.000  1.000  0.000
       0.000  0.000  1.000
     occupation matrix ns (before diag.):
       0.167  0.000  0.000
       0.000  0.167  0.000
       0.000  0.000  0.167
     ------------------------ ATOM   36 ------------------------
     Tr[ns( 36)] =   1.00000
     eigenvalues:
       0.167  0.167  0.167
     eigenvectors (columns):
       1.000  0.000  0.000
       0.000  1.000  0.000
       0.000  0.000  1.000
     occupation matrix ns (before diag.):
       0.167  0.000  0.000
       0.000  0.167  0.000
       0.000  0.000  0.167
     ------------------------ ATOM   37 ------------------------
     Tr[ns( 37)] =   3.00000
     eigenvalues:
       0.500  0.500  0.500
     eigenvectors (columns):
       1.000  0.000  0.000
       0.000  1.000  0.000
       0.000  0.000  1.000
     occupation matrix ns (before diag.):
       0.500  0.000  0.000
       0.000  0.500  0.000
       0.000  0.000  0.500
     ------------------------ ATOM   38 ------------------------
     Tr[ns( 38)] =   3.00000
     eigenvalues:
       0.500  0.500  0.500
     eigenvectors (columns):
       1.000  0.000  0.000
       0.000  1.000  0.000
       0.000  0.000  1.000
     occupation matrix ns (before diag.):
       0.500  0.000  0.000
       0.000  0.500  0.000
       0.000  0.000  0.500
     ------------------------ ATOM   39 ------------------------
     Tr[ns( 39)] =   3.00000
     eigenvalues:
       0.500  0.500  0.500
     eigenvectors (columns):
       1.000  0.000  0.000
       0.000  1.000  0.000
       0.000  0.000  1.000
     occupation matrix ns (before diag.):
       0.500  0.000  0.000
       0.000  0.500  0.000
       0.000  0.000  0.500
     ------------------------ ATOM   40 ------------------------
     Tr[ns( 40)] =   3.00000
     eigenvalues:
       0.500  0.500  0.500
     eigenvectors (columns):
       1.000  0.000  0.000
       0.000  1.000  0.000
       0.000  0.000  1.000
     occupation matrix ns (before diag.):
       0.500  0.000  0.000
       0.000  0.500  0.000
       0.000  0.000  0.500
     ------------------------ ATOM   41 ------------------------
     Tr[ns( 41)] =   1.00000
     eigenvalues:
       0.167  0.167  0.167
     eigenvectors (columns):
       1.000  0.000  0.000
       0.000  1.000  0.000
       0.000  0.000  1.000
     occupation matrix ns (before diag.):
       0.167  0.000  0.000
       0.000  0.167  0.000
       0.000  0.000  0.167
     ------------------------ ATOM   42 ------------------------
     Tr[ns( 42)] =   1.00000
     eigenvalues:
       0.167  0.167  0.167
     eigenvectors (columns):
       1.000  0.000  0.000
       0.000  1.000  0.000
       0.000  0.000  1.000
     occupation matrix ns (before diag.):
       0.167  0.000  0.000
       0.000  0.167  0.000
       0.000  0.000  0.167
     ------------------------ ATOM   43 ------------------------
     Tr[ns( 43)] =   1.00000
     eigenvalues:
       0.167  0.167  0.167
     eigenvectors (columns):
       1.000  0.000  0.000
       0.000  1.000  0.000
       0.000  0.000  1.000
     occupation matrix ns (before diag.):
       0.167  0.000  0.000
       0.000  0.167  0.000
       0.000  0.000  0.167
     ------------------------ ATOM   44 ------------------------
     Tr[ns( 44)] =   1.00000
     eigenvalues:
       0.167  0.167  0.167
     eigenvectors (columns):
       1.000  0.000  0.000
       0.000  1.000  0.000
       0.000  0.000  1.000
     occupation matrix ns (before diag.):
       0.167  0.000  0.000
       0.000  0.167  0.000
       0.000  0.000  0.167
     ------------------------ ATOM   45 ------------------------
     Tr[ns( 45)] =   3.00000
     eigenvalues:
       0.500  0.500  0.500
     eigenvectors (columns):
       1.000  0.000  0.000
       0.000  1.000  0.000
       0.000  0.000  1.000
     occupation matrix ns (before diag.):
       0.500  0.000  0.000
       0.000  0.500  0.000
       0.000  0.000  0.500
     ------------------------ ATOM   46 ------------------------
     Tr[ns( 46)] =   3.00000
     eigenvalues:
       0.500  0.500  0.500
     eigenvectors (columns):
       1.000  0.000  0.000
       0.000  1.000  0.000
       0.000  0.000  1.000
     occupation matrix ns (before diag.):
       0.500  0.000  0.000
       0.000  0.500  0.000
       0.000  0.000  0.500
     ------------------------ ATOM   47 ------------------------
     Tr[ns( 47)] =   3.00000
     eigenvalues:
       0.500  0.500  0.500
     eigenvectors (columns):
       1.000  0.000  0.000
       0.000  1.000  0.000
       0.000  0.000  1.000
     occupation matrix ns (before diag.):
       0.500  0.000  0.000
       0.000  0.500  0.000
       0.000  0.000  0.500
     ------------------------ ATOM   48 ------------------------
     Tr[ns( 48)] =   3.00000
     eigenvalues:
       0.500  0.500  0.500
     eigenvectors (columns):
       1.000  0.000  0.000
       0.000  1.000  0.000
       0.000  0.000  1.000
     occupation matrix ns (before diag.):
       0.500  0.000  0.000
       0.000  0.500  0.000
       0.000  0.000  0.500
     ------------------------ ATOM   49 ------------------------
     Tr[ns( 49)] =   1.00000
     eigenvalues:
       0.167  0.167  0.167
     eigenvectors (columns):
       1.000  0.000  0.000
       0.000  1.000  0.000
       0.000  0.000  1.000
     occupation matrix ns (before diag.):
       0.167  0.000  0.000
       0.000  0.167  0.000
       0.000  0.000  0.167
     ------------------------ ATOM   50 ------------------------
     Tr[ns( 50)] =   1.00000
     eigenvalues:
       0.167  0.167  0.167
     eigenvectors (columns):
       1.000  0.000  0.000
       0.000  1.000  0.000
       0.000  0.000  1.000
     occupation matrix ns (before diag.):
       0.167  0.000  0.000
       0.000  0.167  0.000
       0.000  0.000  0.167
     ------------------------ ATOM   51 ------------------------
     Tr[ns( 51)] =   1.00000
     eigenvalues:
       0.167  0.167  0.167
     eigenvectors (columns):
       1.000  0.000  0.000
       0.000  1.000  0.000
       0.000  0.000  1.000
     occupation matrix ns (before diag.):
       0.167  0.000  0.000
       0.000  0.167  0.000
       0.000  0.000  0.167
     ------------------------ ATOM   52 ------------------------
     Tr[ns( 52)] =   1.00000
     eigenvalues:
       0.167  0.167  0.167
     eigenvectors (columns):
       1.000  0.000  0.000
       0.000  1.000  0.000
       0.000  0.000  1.000
     occupation matrix ns (before diag.):
       0.167  0.000  0.000
       0.000  0.167  0.000
       0.000  0.000  0.167
     ------------------------ ATOM   53 ------------------------
     Tr[ns( 53)] =   3.00000
     eigenvalues:
       0.500  0.500  0.500
     eigenvectors (columns):
       1.000  0.000  0.000
       0.000  1.000  0.000
       0.000  0.000  1.000
     occupation matrix ns (before diag.):
       0.500  0.000  0.000
       0.000  0.500  0.000
       0.000  0.000  0.500
     ------------------------ ATOM   54 ------------------------
     Tr[ns( 54)] =   3.00000
     eigenvalues:
       0.500  0.500  0.500
     eigenvectors (columns):
       1.000  0.000  0.000
       0.000  1.000  0.000
       0.000  0.000  1.000
     occupation matrix ns (before diag.):
       0.500  0.000  0.000
       0.000  0.500  0.000
       0.000  0.000  0.500
     ------------------------ ATOM   55 ------------------------
     Tr[ns( 55)] =   3.00000
     eigenvalues:
       0.500  0.500  0.500
     eigenvectors (columns):
       1.000  0.000  0.000
       0.000  1.000  0.000
       0.000  0.000  1.000
     occupation matrix ns (before diag.):
       0.500  0.000  0.000
       0.000  0.500  0.000
       0.000  0.000  0.500
     ------------------------ ATOM   56 ------------------------
     Tr[ns( 56)] =   3.00000
     eigenvalues:
       0.500  0.500  0.500
     eigenvectors (columns):
       1.000  0.000  0.000
       0.000  1.000  0.000
       0.000  0.000  1.000
     occupation matrix ns (before diag.):
       0.500  0.000  0.000
       0.000  0.500  0.000
       0.000  0.000  0.500
     ------------------------ ATOM   57 ------------------------
     Tr[ns( 57)] =   1.00000
     eigenvalues:
       0.167  0.167  0.167
     eigenvectors (columns):
       1.000  0.000  0.000
       0.000  1.000  0.000
       0.000  0.000  1.000
     occupation matrix ns (before diag.):
       0.167  0.000  0.000
       0.000  0.167  0.000
       0.000  0.000  0.167
     ------------------------ ATOM   58 ------------------------
     Tr[ns( 58)] =   1.00000
     eigenvalues:
       0.167  0.167  0.167
     eigenvectors (columns):
       1.000  0.000  0.000
       0.000  1.000  0.000
       0.000  0.000  1.000
     occupation matrix ns (before diag.):
       0.167  0.000  0.000
       0.000  0.167  0.000
       0.000  0.000  0.167
     ------------------------ ATOM   59 ------------------------
     Tr[ns( 59)] =   1.00000
     eigenvalues:
       0.167  0.167  0.167
     eigenvectors (columns):
       1.000  0.000  0.000
       0.000  1.000  0.000
       0.000  0.000  1.000
     occupation matrix ns (before diag.):
       0.167  0.000  0.000
       0.000  0.167  0.000
       0.000  0.000  0.167
     ------------------------ ATOM   60 ------------------------
     Tr[ns( 60)] =   1.00000
     eigenvalues:
       0.167  0.167  0.167
     eigenvectors (columns):
       1.000  0.000  0.000
       0.000  1.000  0.000
       0.000  0.000  1.000
     occupation matrix ns (before diag.):
       0.167  0.000  0.000
       0.000  0.167  0.000
       0.000  0.000  0.167
     ------------------------ ATOM   61 ------------------------
     Tr[ns( 61)] =   3.00000
     eigenvalues:
       0.500  0.500  0.500
     eigenvectors (columns):
       1.000  0.000  0.000
       0.000  1.000  0.000
       0.000  0.000  1.000
     occupation matrix ns (before diag.):
       0.500  0.000  0.000
       0.000  0.500  0.000
       0.000  0.000  0.500
     ------------------------ ATOM   62 ------------------------
     Tr[ns( 62)] =   3.00000
     eigenvalues:
       0.500  0.500  0.500
     eigenvectors (columns):
       1.000  0.000  0.000
       0.000  1.000  0.000
       0.000  0.000  1.000
     occupation matrix ns (before diag.):
       0.500  0.000  0.000
       0.000  0.500  0.000
       0.000  0.000  0.500
     ------------------------ ATOM   63 ------------------------
     Tr[ns( 63)] =   3.00000
     eigenvalues:
       0.500  0.500  0.500
     eigenvectors (columns):
       1.000  0.000  0.000
       0.000  1.000  0.000
       0.000  0.000  1.000
     occupation matrix ns (before diag.):
       0.500  0.000  0.000
       0.000  0.500  0.000
       0.000  0.000  0.500
     ------------------------ ATOM   64 ------------------------
     Tr[ns( 64)] =   3.00000
     eigenvalues:
       0.500  0.500  0.500
     eigenvectors (columns):
       1.000  0.000  0.000
       0.000  1.000  0.000
       0.000  0.000  1.000
     occupation matrix ns (before diag.):
       0.500  0.000  0.000
       0.000  0.500  0.000
       0.000  0.000  0.500
     ------------------------ ATOM   65 ------------------------
     Tr[ns( 65)] =   1.00000
     eigenvalues:
       0.167  0.167  0.167
     eigenvectors (columns):
       1.000  0.000  0.000
       0.000  1.000  0.000
       0.000  0.000  1.000
     occupation matrix ns (before diag.):
       0.167  0.000  0.000
       0.000  0.167  0.000
       0.000  0.000  0.167
     ------------------------ ATOM   66 ------------------------
     Tr[ns( 66)] =   1.00000
     eigenvalues:
       0.167  0.167  0.167
     eigenvectors (columns):
       1.000  0.000  0.000
       0.000  1.000  0.000
       0.000  0.000  1.000
     occupation matrix ns (before diag.):
       0.167  0.000  0.000
       0.000  0.167  0.000
       0.000  0.000  0.167
     ------------------------ ATOM   67 ------------------------
     Tr[ns( 67)] =   1.00000
     eigenvalues:
       0.167  0.167  0.167
     eigenvectors (columns):
       1.000  0.000  0.000
       0.000  1.000  0.000
       0.000  0.000  1.000
     occupation matrix ns (before diag.):
       0.167  0.000  0.000
       0.000  0.167  0.000
       0.000  0.000  0.167
     ------------------------ ATOM   68 ------------------------
     Tr[ns( 68)] =   1.00000
     eigenvalues:
       0.167  0.167  0.167
     eigenvectors (columns):
       1.000  0.000  0.000
       0.000  1.000  0.000
       0.000  0.000  1.000
     occupation matrix ns (before diag.):
       0.167  0.000  0.000
       0.000  0.167  0.000
       0.000  0.000  0.167
     ------------------------ ATOM   69 ------------------------
     Tr[ns( 69)] =   3.00000
     eigenvalues:
       0.500  0.500  0.500
     eigenvectors (columns):
       1.000  0.000  0.000
       0.000  1.000  0.000
       0.000  0.000  1.000
     occupation matrix ns (before diag.):
       0.500  0.000  0.000
       0.000  0.500  0.000
       0.000  0.000  0.500
     ------------------------ ATOM   70 ------------------------
     Tr[ns( 70)] =   3.00000
     eigenvalues:
       0.500  0.500  0.500
     eigenvectors (columns):
       1.000  0.000  0.000
       0.000  1.000  0.000
       0.000  0.000  1.000
     occupation matrix ns (before diag.):
       0.500  0.000  0.000
       0.000  0.500  0.000
       0.000  0.000  0.500
     ------------------------ ATOM   71 ------------------------
     Tr[ns( 71)] =   3.00000
     eigenvalues:
       0.500  0.500  0.500
     eigenvectors (columns):
       1.000  0.000  0.000
       0.000  1.000  0.000
       0.000  0.000  1.000
     occupation matrix ns (before diag.):
       0.500  0.000  0.000
       0.000  0.500  0.000
       0.000  0.000  0.500
     ------------------------ ATOM   72 ------------------------
     Tr[ns( 72)] =   3.00000
     eigenvalues:
       0.500  0.500  0.500
     eigenvectors (columns):
       1.000  0.000  0.000
       0.000  1.000  0.000
       0.000  0.000  1.000
     occupation matrix ns (before diag.):
       0.500  0.000  0.000
       0.000  0.500  0.000
       0.000  0.000  0.500
     ------------------------ ATOM   73 ------------------------
     Tr[ns( 73)] =   1.00000
     eigenvalues:
       0.167  0.167  0.167
     eigenvectors (columns):
       1.000  0.000  0.000
       0.000  1.000  0.000
       0.000  0.000  1.000
     occupation matrix ns (before diag.):
       0.167  0.000  0.000
       0.000  0.167  0.000
       0.000  0.000  0.167
     ------------------------ ATOM   74 ------------------------
     Tr[ns( 74)] =   1.00000
     eigenvalues:
       0.167  0.167  0.167
     eigenvectors (columns):
       1.000  0.000  0.000
       0.000  1.000  0.000
       0.000  0.000  1.000
     occupation matrix ns (before diag.):
       0.167  0.000  0.000
       0.000  0.167  0.000
       0.000  0.000  0.167
     ------------------------ ATOM   75 ------------------------
     Tr[ns( 75)] =   1.00000
     eigenvalues:
       0.167  0.167  0.167
     eigenvectors (columns):
       1.000  0.000  0.000
       0.000  1.000  0.000
       0.000  0.000  1.000
     occupation matrix ns (before diag.):
       0.167  0.000  0.000
       0.000  0.167  0.000
       0.000  0.000  0.167
     ------------------------ ATOM   76 ------------------------
     Tr[ns( 76)] =   1.00000
     eigenvalues:
       0.167  0.167  0.167
     eigenvectors (columns):
       1.000  0.000  0.000
       0.000  1.000  0.000
       0.000  0.000  1.000
     occupation matrix ns (before diag.):
       0.167  0.000  0.000
       0.000  0.167  0.000
       0.000  0.000  0.167
     ------------------------ ATOM   77 ------------------------
     Tr[ns( 77)] =   3.00000
     eigenvalues:
       0.500  0.500  0.500
     eigenvectors (columns):
       1.000  0.000  0.000
       0.000  1.000  0.000
       0.000  0.000  1.000
     occupation matrix ns (before diag.):
       0.500  0.000  0.000
       0.000  0.500  0.000
       0.000  0.000  0.500
     ------------------------ ATOM   78 ------------------------
     Tr[ns( 78)] =   3.00000
     eigenvalues:
       0.500  0.500  0.500
     eigenvectors (columns):
       1.000  0.000  0.000
       0.000  1.000  0.000
       0.000  0.000  1.000
     occupation matrix ns (before diag.):
       0.500  0.000  0.000
       0.000  0.500  0.000
       0.000  0.000  0.500
     ------------------------ ATOM   79 ------------------------
     Tr[ns( 79)] =   3.00000
     eigenvalues:
       0.500  0.500  0.500
     eigenvectors (columns):
       1.000  0.000  0.000
       0.000  1.000  0.000
       0.000  0.000  1.000
     occupation matrix ns (before diag.):
       0.500  0.000  0.000
       0.000  0.500  0.000
       0.000  0.000  0.500
     ------------------------ ATOM   80 ------------------------
     Tr[ns( 80)] =   3.00000
     eigenvalues:
       0.500  0.500  0.500
     eigenvectors (columns):
       1.000  0.000  0.000
       0.000  1.000  0.000
       0.000  0.000  1.000
     occupation matrix ns (before diag.):
       0.500  0.000  0.000
       0.000  0.500  0.000
       0.000  0.000  0.500
     ------------------------ ATOM   81 ------------------------
     Tr[ns( 81)] =   1.00000
     eigenvalues:
       0.167  0.167  0.167
     eigenvectors (columns):
       1.000  0.000  0.000
       0.000  1.000  0.000
       0.000  0.000  1.000
     occupation matrix ns (before diag.):
       0.167  0.000  0.000
       0.000  0.167  0.000
       0.000  0.000  0.167
     ------------------------ ATOM   82 ------------------------
     Tr[ns( 82)] =   1.00000
     eigenvalues:
       0.167  0.167  0.167
     eigenvectors (columns):
       1.000  0.000  0.000
       0.000  1.000  0.000
       0.000  0.000  1.000
     occupation matrix ns (before diag.):
       0.167  0.000  0.000
       0.000  0.167  0.000
       0.000  0.000  0.167
     ------------------------ ATOM   83 ------------------------
     Tr[ns( 83)] =   1.00000
     eigenvalues:
       0.167  0.167  0.167
     eigenvectors (columns):
       1.000  0.000  0.000
       0.000  1.000  0.000
       0.000  0.000  1.000
     occupation matrix ns (before diag.):
       0.167  0.000  0.000
       0.000  0.167  0.000
       0.000  0.000  0.167
     ------------------------ ATOM   84 ------------------------
     Tr[ns( 84)] =   1.00000
     eigenvalues:
       0.167  0.167  0.167
     eigenvectors (columns):
       1.000  0.000  0.000
       0.000  1.000  0.000
       0.000  0.000  1.000
     occupation matrix ns (before diag.):
       0.167  0.000  0.000
       0.000  0.167  0.000
       0.000  0.000  0.167
     ------------------------ ATOM   85 ------------------------
     Tr[ns( 85)] =   3.00000
     eigenvalues:
       0.500  0.500  0.500
     eigenvectors (columns):
       1.000  0.000  0.000
       0.000  1.000  0.000
       0.000  0.000  1.000
     occupation matrix ns (before diag.):
       0.500  0.000  0.000
       0.000  0.500  0.000
       0.000  0.000  0.500
     ------------------------ ATOM   86 ------------------------
     Tr[ns( 86)] =   3.00000
     eigenvalues:
       0.500  0.500  0.500
     eigenvectors (columns):
       1.000  0.000  0.000
       0.000  1.000  0.000
       0.000  0.000  1.000
     occupation matrix ns (before diag.):
       0.500  0.000  0.000
       0.000  0.500  0.000
       0.000  0.000  0.500
     ------------------------ ATOM   87 ------------------------
     Tr[ns( 87)] =   3.00000
     eigenvalues:
       0.500  0.500  0.500
     eigenvectors (columns):
       1.000  0.000  0.000
       0.000  1.000  0.000
       0.000  0.000  1.000
     occupation matrix ns (before diag.):
       0.500  0.000  0.000
       0.000  0.500  0.000
       0.000  0.000  0.500
     ------------------------ ATOM   88 ------------------------
     Tr[ns( 88)] =   3.00000
     eigenvalues:
       0.500  0.500  0.500
     eigenvectors (columns):
       1.000  0.000  0.000
       0.000  1.000  0.000
       0.000  0.000  1.000
     occupation matrix ns (before diag.):
       0.500  0.000  0.000
       0.000  0.500  0.000
       0.000  0.000  0.500
     ------------------------ ATOM   89 ------------------------
     Tr[ns( 89)] =   1.00000
     eigenvalues:
       0.167  0.167  0.167
     eigenvectors (columns):
       1.000  0.000  0.000
       0.000  1.000  0.000
       0.000  0.000  1.000
     occupation matrix ns (before diag.):
       0.167  0.000  0.000
       0.000  0.167  0.000
       0.000  0.000  0.167
     ------------------------ ATOM   90 ------------------------
     Tr[ns( 90)] =   1.00000
     eigenvalues:
       0.167  0.167  0.167
     eigenvectors (columns):
       1.000  0.000  0.000
       0.000  1.000  0.000
       0.000  0.000  1.000
     occupation matrix ns (before diag.):
       0.167  0.000  0.000
       0.000  0.167  0.000
       0.000  0.000  0.167
     ------------------------ ATOM   91 ------------------------
     Tr[ns( 91)] =   1.00000
     eigenvalues:
       0.167  0.167  0.167
     eigenvectors (columns):
       1.000  0.000  0.000
       0.000  1.000  0.000
       0.000  0.000  1.000
     occupation matrix ns (before diag.):
       0.167  0.000  0.000
       0.000  0.167  0.000
       0.000  0.000  0.167
     ------------------------ ATOM   92 ------------------------
     Tr[ns( 92)] =   1.00000
     eigenvalues:
       0.167  0.167  0.167
     eigenvectors (columns):
       1.000  0.000  0.000
       0.000  1.000  0.000
       0.000  0.000  1.000
     occupation matrix ns (before diag.):
       0.167  0.000  0.000
       0.000  0.167  0.000
       0.000  0.000  0.167
     ------------------------ ATOM   93 ------------------------
     Tr[ns( 93)] =   3.00000
     eigenvalues:
       0.500  0.500  0.500
     eigenvectors (columns):
       1.000  0.000  0.000
       0.000  1.000  0.000
       0.000  0.000  1.000
     occupation matrix ns (before diag.):
       0.500  0.000  0.000
       0.000  0.500  0.000
       0.000  0.000  0.500
     ------------------------ ATOM   94 ------------------------
     Tr[ns( 94)] =   3.00000
     eigenvalues:
       0.500  0.500  0.500
     eigenvectors (columns):
       1.000  0.000  0.000
       0.000  1.000  0.000
       0.000  0.000  1.000
     occupation matrix ns (before diag.):
       0.500  0.000  0.000
       0.000  0.500  0.000
       0.000  0.000  0.500
     ------------------------ ATOM   95 ------------------------
     Tr[ns( 95)] =   3.00000
     eigenvalues:
       0.500  0.500  0.500
     eigenvectors (columns):
       1.000  0.000  0.000
       0.000  1.000  0.000
       0.000  0.000  1.000
     occupation matrix ns (before diag.):
       0.500  0.000  0.000
       0.000  0.500  0.000
       0.000  0.000  0.500
     ------------------------ ATOM   96 ------------------------
     Tr[ns( 96)] =   3.00000
     eigenvalues:
       0.500  0.500  0.500
     eigenvectors (columns):
       1.000  0.000  0.000
       0.000  1.000  0.000
       0.000  0.000  1.000
     occupation matrix ns (before diag.):
       0.500  0.000  0.000
       0.000  0.500  0.000
       0.000  0.000  0.500
     ------------------------ ATOM   97 ------------------------
     Tr[ns( 97)] =   1.00000
     eigenvalues:
       0.167  0.167  0.167
     eigenvectors (columns):
       1.000  0.000  0.000
       0.000  1.000  0.000
       0.000  0.000  1.000
     occupation matrix ns (before diag.):
       0.167  0.000  0.000
       0.000  0.167  0.000
       0.000  0.000  0.167
     ------------------------ ATOM   98 ------------------------
     Tr[ns( 98)] =   1.00000
     eigenvalues:
       0.167  0.167  0.167
     eigenvectors (columns):
       1.000  0.000  0.000
       0.000  1.000  0.000
       0.000  0.000  1.000
     occupation matrix ns (before diag.):
       0.167  0.000  0.000
       0.000  0.167  0.000
       0.000  0.000  0.167
     ------------------------ ATOM   99 ------------------------
     Tr[ns( 99)] =   1.00000
     eigenvalues:
       0.167  0.167  0.167
     eigenvectors (columns):
       1.000  0.000  0.000
       0.000  1.000  0.000
       0.000  0.000  1.000
     occupation matrix ns (before diag.):
       0.167  0.000  0.000
       0.000  0.167  0.000
       0.000  0.000  0.167
     ------------------------ ATOM  100 ------------------------
     Tr[ns(100)] =   1.00000
     eigenvalues:
       0.167  0.167  0.167
     eigenvectors (columns):
       1.000  0.000  0.000
       0.000  1.000  0.000
       0.000  0.000  1.000
     occupation matrix ns (before diag.):
       0.167  0.000  0.000
       0.000  0.167  0.000
       0.000  0.000  0.167
     ------------------------ ATOM  101 ------------------------
     Tr[ns(101)] =   3.00000
     eigenvalues:
       0.500  0.500  0.500
     eigenvectors (columns):
       1.000  0.000  0.000
       0.000  1.000  0.000
       0.000  0.000  1.000
     occupation matrix ns (before diag.):
       0.500  0.000  0.000
       0.000  0.500  0.000
       0.000  0.000  0.500
     ------------------------ ATOM  102 ------------------------
     Tr[ns(102)] =   3.00000
     eigenvalues:
       0.500  0.500  0.500
     eigenvectors (columns):
       1.000  0.000  0.000
       0.000  1.000  0.000
       0.000  0.000  1.000
     occupation matrix ns (before diag.):
       0.500  0.000  0.000
       0.000  0.500  0.000
       0.000  0.000  0.500
     ------------------------ ATOM  103 ------------------------
     Tr[ns(103)] =   3.00000
     eigenvalues:
       0.500  0.500  0.500
     eigenvectors (columns):
       1.000  0.000  0.000
       0.000  1.000  0.000
       0.000  0.000  1.000
     occupation matrix ns (before diag.):
       0.500  0.000  0.000
       0.000  0.500  0.000
       0.000  0.000  0.500
     ------------------------ ATOM  104 ------------------------
     Tr[ns(104)] =   3.00000
     eigenvalues:
       0.500  0.500  0.500
     eigenvectors (columns):
       1.000  0.000  0.000
       0.000  1.000  0.000
       0.000  0.000  1.000
     occupation matrix ns (before diag.):
       0.500  0.000  0.000
       0.000  0.500  0.000
       0.000  0.000  0.500
     ------------------------ ATOM  105 ------------------------
     Tr[ns(105)] =   1.00000
     eigenvalues:
       0.167  0.167  0.167
     eigenvectors (columns):
       1.000  0.000  0.000
       0.000  1.000  0.000
       0.000  0.000  1.000
     occupation matrix ns (before diag.):
       0.167  0.000  0.000
       0.000  0.167  0.000
       0.000  0.000  0.167
     ------------------------ ATOM  106 ------------------------
     Tr[ns(106)] =   1.00000
     eigenvalues:
       0.167  0.167  0.167
     eigenvectors (columns):
       1.000  0.000  0.000
       0.000  1.000  0.000
       0.000  0.000  1.000
     occupation matrix ns (before diag.):
       0.167  0.000  0.000
       0.000  0.167  0.000
       0.000  0.000  0.167
     ------------------------ ATOM  107 ------------------------
     Tr[ns(107)] =   1.00000
     eigenvalues:
       0.167  0.167  0.167
     eigenvectors (columns):
       1.000  0.000  0.000
       0.000  1.000  0.000
       0.000  0.000  1.000
     occupation matrix ns (before diag.):
       0.167  0.000  0.000
       0.000  0.167  0.000
       0.000  0.000  0.167
     ------------------------ ATOM  108 ------------------------
     Tr[ns(108)] =   1.00000
     eigenvalues:
       0.167  0.167  0.167
     eigenvectors (columns):
       1.000  0.000  0.000
       0.000  1.000  0.000
       0.000  0.000  1.000
     occupation matrix ns (before diag.):
       0.167  0.000  0.000
       0.000  0.167  0.000
       0.000  0.000  0.167
     ------------------------ ATOM  109 ------------------------
     Tr[ns(109)] =   3.00000
     eigenvalues:
       0.500  0.500  0.500
     eigenvectors (columns):
       1.000  0.000  0.000
       0.000  1.000  0.000
       0.000  0.000  1.000
     occupation matrix ns (before diag.):
       0.500  0.000  0.000
       0.000  0.500  0.000
       0.000  0.000  0.500
     ------------------------ ATOM  110 ------------------------
     Tr[ns(110)] =   3.00000
     eigenvalues:
       0.500  0.500  0.500
     eigenvectors (columns):
       1.000  0.000  0.000
       0.000  1.000  0.000
       0.000  0.000  1.000
     occupation matrix ns (before diag.):
       0.500  0.000  0.000
       0.000  0.500  0.000
       0.000  0.000  0.500
     ------------------------ ATOM  111 ------------------------
     Tr[ns(111)] =   3.00000
     eigenvalues:
       0.500  0.500  0.500
     eigenvectors (columns):
       1.000  0.000  0.000
       0.000  1.000  0.000
       0.000  0.000  1.000
     occupation matrix ns (before diag.):
       0.500  0.000  0.000
       0.000  0.500  0.000
       0.000  0.000  0.500
     ------------------------ ATOM  112 ------------------------
     Tr[ns(112)] =   3.00000
     eigenvalues:
       0.500  0.500  0.500
     eigenvectors (columns):
       1.000  0.000  0.000
       0.000  1.000  0.000
       0.000  0.000  1.000
     occupation matrix ns (before diag.):
       0.500  0.000  0.000
       0.000  0.500  0.000
       0.000  0.000  0.500
     ------------------------ ATOM  113 ------------------------
     Tr[ns(113)] =   1.00000
     eigenvalues:
       0.167  0.167  0.167
     eigenvectors (columns):
       1.000  0.000  0.000
       0.000  1.000  0.000
       0.000  0.000  1.000
     occupation matrix ns (before diag.):
       0.167  0.000  0.000
       0.000  0.167  0.000
       0.000  0.000  0.167
     ------------------------ ATOM  114 ------------------------
     Tr[ns(114)] =   1.00000
     eigenvalues:
       0.167  0.167  0.167
     eigenvectors (columns):
       1.000  0.000  0.000
       0.000  1.000  0.000
       0.000  0.000  1.000
     occupation matrix ns (before diag.):
       0.167  0.000  0.000
       0.000  0.167  0.000
       0.000  0.000  0.167
     ------------------------ ATOM  115 ------------------------
     Tr[ns(115)] =   1.00000
     eigenvalues:
       0.167  0.167  0.167
     eigenvectors (columns):
       1.000  0.000  0.000
       0.000  1.000  0.000
       0.000  0.000  1.000
     occupation matrix ns (before diag.):
       0.167  0.000  0.000
       0.000  0.167  0.000
       0.000  0.000  0.167
     ------------------------ ATOM  116 ------------------------
     Tr[ns(116)] =   1.00000
     eigenvalues:
       0.167  0.167  0.167
     eigenvectors (columns):
       1.000  0.000  0.000
       0.000  1.000  0.000
       0.000  0.000  1.000
     occupation matrix ns (before diag.):
       0.167  0.000  0.000
       0.000  0.167  0.000
       0.000  0.000  0.167
     ------------------------ ATOM  117 ------------------------
     Tr[ns(117)] =   3.00000
     eigenvalues:
       0.500  0.500  0.500
     eigenvectors (columns):
       1.000  0.000  0.000
       0.000  1.000  0.000
       0.000  0.000  1.000
     occupation matrix ns (before diag.):
       0.500  0.000  0.000
       0.000  0.500  0.000
       0.000  0.000  0.500
     ------------------------ ATOM  118 ------------------------
     Tr[ns(118)] =   3.00000
     eigenvalues:
       0.500  0.500  0.500
     eigenvectors (columns):
       1.000  0.000  0.000
       0.000  1.000  0.000
       0.000  0.000  1.000
     occupation matrix ns (before diag.):
       0.500  0.000  0.000
       0.000  0.500  0.000
       0.000  0.000  0.500
     ------------------------ ATOM  119 ------------------------
     Tr[ns(119)] =   3.00000
     eigenvalues:
       0.500  0.500  0.500
     eigenvectors (columns):
       1.000  0.000  0.000
       0.000  1.000  0.000
       0.000  0.000  1.000
     occupation matrix ns (before diag.):
       0.500  0.000  0.000
       0.000  0.500  0.000
       0.000  0.000  0.500
     ------------------------ ATOM  120 ------------------------
     Tr[ns(120)] =   3.00000
     eigenvalues:
       0.500  0.500  0.500
     eigenvectors (columns):
       1.000  0.000  0.000
       0.000  1.000  0.000
       0.000  0.000  1.000
     occupation matrix ns (before diag.):
       0.500  0.000  0.000
       0.000  0.500  0.000
       0.000  0.000  0.500
     ------------------------ ATOM  121 ------------------------
     Tr[ns(121)] =   1.00000
     eigenvalues:
       0.167  0.167  0.167
     eigenvectors (columns):
       1.000  0.000  0.000
       0.000  1.000  0.000
       0.000  0.000  1.000
     occupation matrix ns (before diag.):
       0.167  0.000  0.000
       0.000  0.167  0.000
       0.000  0.000  0.167
     ------------------------ ATOM  122 ------------------------
     Tr[ns(122)] =   1.00000
     eigenvalues:
       0.167  0.167  0.167
     eigenvectors (columns):
       1.000  0.000  0.000
       0.000  1.000  0.000
       0.000  0.000  1.000
     occupation matrix ns (before diag.):
       0.167  0.000  0.000
       0.000  0.167  0.000
       0.000  0.000  0.167
     ------------------------ ATOM  123 ------------------------
     Tr[ns(123)] =   1.00000
     eigenvalues:
       0.167  0.167  0.167
     eigenvectors (columns):
       1.000  0.000  0.000
       0.000  1.000  0.000
       0.000  0.000  1.000
     occupation matrix ns (before diag.):
       0.167  0.000  0.000
       0.000  0.167  0.000
       0.000  0.000  0.167
     ------------------------ ATOM  124 ------------------------
     Tr[ns(124)] =   1.00000
     eigenvalues:
       0.167  0.167  0.167
     eigenvectors (columns):
       1.000  0.000  0.000
       0.000  1.000  0.000
       0.000  0.000  1.000
     occupation matrix ns (before diag.):
       0.167  0.000  0.000
       0.000  0.167  0.000
       0.000  0.000  0.167
     ------------------------ ATOM  125 ------------------------
     Tr[ns(125)] =   3.00000
     eigenvalues:
       0.500  0.500  0.500
     eigenvectors (columns):
       1.000  0.000  0.000
       0.000  1.000  0.000
       0.000  0.000  1.000
     occupation matrix ns (before diag.):
       0.500  0.000  0.000
       0.000  0.500  0.000
       0.000  0.000  0.500
     ------------------------ ATOM  126 ------------------------
     Tr[ns(126)] =   3.00000
     eigenvalues:
       0.500  0.500  0.500
     eigenvectors (columns):
       1.000  0.000  0.000
       0.000  1.000  0.000
       0.000  0.000  1.000
     occupation matrix ns (before diag.):
       0.500  0.000  0.000
       0.000  0.500  0.000
       0.000  0.000  0.500
     ------------------------ ATOM  127 ------------------------
     Tr[ns(127)] =   3.00000
     eigenvalues:
       0.500  0.500  0.500
     eigenvectors (columns):
       1.000  0.000  0.000
       0.000  1.000  0.000
       0.000  0.000  1.000
     occupation matrix ns (before diag.):
       0.500  0.000  0.000
       0.000  0.500  0.000
       0.000  0.000  0.500
     ------------------------ ATOM  128 ------------------------
     Tr[ns(128)] =   3.00000
     eigenvalues:
       0.500  0.500  0.500
     eigenvectors (columns):
       1.000  0.000  0.000
       0.000  1.000  0.000
       0.000  0.000  1.000
     occupation matrix ns (before diag.):
       0.500  0.000  0.000
       0.000  0.500  0.000
       0.000  0.000  0.500
     ------------------------ ATOM  129 ------------------------
     Tr[ns(129)] =   1.00000
     eigenvalues:
       0.167  0.167  0.167
     eigenvectors (columns):
       1.000  0.000  0.000
       0.000  1.000  0.000
       0.000  0.000  1.000
     occupation matrix ns (before diag.):
       0.167  0.000  0.000
       0.000  0.167  0.000
       0.000  0.000  0.167
     ------------------------ ATOM  130 ------------------------
     Tr[ns(130)] =   1.00000
     eigenvalues:
       0.167  0.167  0.167
     eigenvectors (columns):
       1.000  0.000  0.000
       0.000  1.000  0.000
       0.000  0.000  1.000
     occupation matrix ns (before diag.):
       0.167  0.000  0.000
       0.000  0.167  0.000
       0.000  0.000  0.167
     ------------------------ ATOM  131 ------------------------
     Tr[ns(131)] =   1.00000
     eigenvalues:
       0.167  0.167  0.167
     eigenvectors (columns):
       1.000  0.000  0.000
       0.000  1.000  0.000
       0.000  0.000  1.000
     occupation matrix ns (before diag.):
       0.167  0.000  0.000
       0.000  0.167  0.000
       0.000  0.000  0.167
     ------------------------ ATOM  132 ------------------------
     Tr[ns(132)] =   1.00000
     eigenvalues:
       0.167  0.167  0.167
     eigenvectors (columns):
       1.000  0.000  0.000
       0.000  1.000  0.000
       0.000  0.000  1.000
     occupation matrix ns (before diag.):
       0.167  0.000  0.000
       0.000  0.167  0.000
       0.000  0.000  0.167
     ------------------------ ATOM  133 ------------------------
     Tr[ns(133)] =   3.00000
     eigenvalues:
       0.500  0.500  0.500
     eigenvectors (columns):
       1.000  0.000  0.000
       0.000  1.000  0.000
       0.000  0.000  1.000
     occupation matrix ns (before diag.):
       0.500  0.000  0.000
       0.000  0.500  0.000
       0.000  0.000  0.500
     ------------------------ ATOM  134 ------------------------
     Tr[ns(134)] =   3.00000
     eigenvalues:
       0.500  0.500  0.500
     eigenvectors (columns):
       1.000  0.000  0.000
       0.000  1.000  0.000
       0.000  0.000  1.000
     occupation matrix ns (before diag.):
       0.500  0.000  0.000
       0.000  0.500  0.000
       0.000  0.000  0.500
     ------------------------ ATOM  135 ------------------------
     Tr[ns(135)] =   3.00000
     eigenvalues:
       0.500  0.500  0.500
     eigenvectors (columns):
       1.000  0.000  0.000
       0.000  1.000  0.000
       0.000  0.000  1.000
     occupation matrix ns (before diag.):
       0.500  0.000  0.000
       0.000  0.500  0.000
       0.000  0.000  0.500
     ------------------------ ATOM  136 ------------------------
     Tr[ns(136)] =   3.00000
     eigenvalues:
       0.500  0.500  0.500
     eigenvectors (columns):
       1.000  0.000  0.000
       0.000  1.000  0.000
       0.000  0.000  1.000
     occupation matrix ns (before diag.):
       0.500  0.000  0.000
       0.000  0.500  0.000
       0.000  0.000  0.500
     ------------------------ ATOM  137 ------------------------
     Tr[ns(137)] =   1.00000
     eigenvalues:
       0.167  0.167  0.167
     eigenvectors (columns):
       1.000  0.000  0.000
       0.000  1.000  0.000
       0.000  0.000  1.000
     occupation matrix ns (before diag.):
       0.167  0.000  0.000
       0.000  0.167  0.000
       0.000  0.000  0.167
     ------------------------ ATOM  138 ------------------------
     Tr[ns(138)] =   1.00000
     eigenvalues:
       0.167  0.167  0.167
     eigenvectors (columns):
       1.000  0.000  0.000
       0.000  1.000  0.000
       0.000  0.000  1.000
     occupation matrix ns (before diag.):
       0.167  0.000  0.000
       0.000  0.167  0.000
       0.000  0.000  0.167
     ------------------------ ATOM  139 ------------------------
     Tr[ns(139)] =   1.00000
     eigenvalues:
       0.167  0.167  0.167
     eigenvectors (columns):
       1.000  0.000  0.000
       0.000  1.000  0.000
       0.000  0.000  1.000
     occupation matrix ns (before diag.):
       0.167  0.000  0.000
       0.000  0.167  0.000
       0.000  0.000  0.167
     ------------------------ ATOM  140 ------------------------
     Tr[ns(140)] =   1.00000
     eigenvalues:
       0.167  0.167  0.167
     eigenvectors (columns):
       1.000  0.000  0.000
       0.000  1.000  0.000
       0.000  0.000  1.000
     occupation matrix ns (before diag.):
       0.167  0.000  0.000
       0.000  0.167  0.000
       0.000  0.000  0.167
     ------------------------ ATOM  141 ------------------------
     Tr[ns(141)] =   3.00000
     eigenvalues:
       0.500  0.500  0.500
     eigenvectors (columns):
       1.000  0.000  0.000
       0.000  1.000  0.000
       0.000  0.000  1.000
     occupation matrix ns (before diag.):
       0.500  0.000  0.000
       0.000  0.500  0.000
       0.000  0.000  0.500
     ------------------------ ATOM  142 ------------------------
     Tr[ns(142)] =   3.00000
     eigenvalues:
       0.500  0.500  0.500
     eigenvectors (columns):
       1.000  0.000  0.000
       0.000  1.000  0.000
       0.000  0.000  1.000
     occupation matrix ns (before diag.):
       0.500  0.000  0.000
       0.000  0.500  0.000
       0.000  0.000  0.500
     ------------------------ ATOM  143 ------------------------
     Tr[ns(143)] =   3.00000
     eigenvalues:
       0.500  0.500  0.500
     eigenvectors (columns):
       1.000  0.000  0.000
       0.000  1.000  0.000
       0.000  0.000  1.000
     occupation matrix ns (before diag.):
       0.500  0.000  0.000
       0.000  0.500  0.000
       0.000  0.000  0.500
     ------------------------ ATOM  144 ------------------------
     Tr[ns(144)] =   3.00000
     eigenvalues:
       0.500  0.500  0.500
     eigenvectors (columns):
       1.000  0.000  0.000
       0.000  1.000  0.000
       0.000  0.000  1.000
     occupation matrix ns (before diag.):
       0.500  0.000  0.000
       0.000  0.500  0.000
       0.000  0.000  0.500
     ------------------------ ATOM  145 ------------------------
     Tr[ns(145)] =   1.00000
     eigenvalues:
       0.167  0.167  0.167
     eigenvectors (columns):
       1.000  0.000  0.000
       0.000  1.000  0.000
       0.000  0.000  1.000
     occupation matrix ns (before diag.):
       0.167  0.000  0.000
       0.000  0.167  0.000
       0.000  0.000  0.167
     ------------------------ ATOM  146 ------------------------
     Tr[ns(146)] =   1.00000
     eigenvalues:
       0.167  0.167  0.167
     eigenvectors (columns):
       1.000  0.000  0.000
       0.000  1.000  0.000
       0.000  0.000  1.000
     occupation matrix ns (before diag.):
       0.167  0.000  0.000
       0.000  0.167  0.000
       0.000  0.000  0.167
     ------------------------ ATOM  147 ------------------------
     Tr[ns(147)] =   1.00000
     eigenvalues:
       0.167  0.167  0.167
     eigenvectors (columns):
       1.000  0.000  0.000
       0.000  1.000  0.000
       0.000  0.000  1.000
     occupation matrix ns (before diag.):
       0.167  0.000  0.000
       0.000  0.167  0.000
       0.000  0.000  0.167
     ------------------------ ATOM  148 ------------------------
     Tr[ns(148)] =   1.00000
     eigenvalues:
       0.167  0.167  0.167
     eigenvectors (columns):
       1.000  0.000  0.000
       0.000  1.000  0.000
       0.000  0.000  1.000
     occupation matrix ns (before diag.):
       0.167  0.000  0.000
       0.000  0.167  0.000
       0.000  0.000  0.167
     ------------------------ ATOM  149 ------------------------
     Tr[ns(149)] =   3.00000
     eigenvalues:
       0.500  0.500  0.500
     eigenvectors (columns):
       1.000  0.000  0.000
       0.000  1.000  0.000
       0.000  0.000  1.000
     occupation matrix ns (before diag.):
       0.500  0.000  0.000
       0.000  0.500  0.000
       0.000  0.000  0.500
     ------------------------ ATOM  150 ------------------------
     Tr[ns(150)] =   3.00000
     eigenvalues:
       0.500  0.500  0.500
     eigenvectors (columns):
       1.000  0.000  0.000
       0.000  1.000  0.000
       0.000  0.000  1.000
     occupation matrix ns (before diag.):
       0.500  0.000  0.000
       0.000  0.500  0.000
       0.000  0.000  0.500
     ------------------------ ATOM  151 ------------------------
     Tr[ns(151)] =   3.00000
     eigenvalues:
       0.500  0.500  0.500
     eigenvectors (columns):
       1.000  0.000  0.000
       0.000  1.000  0.000
       0.000  0.000  1.000
     occupation matrix ns (before diag.):
       0.500  0.000  0.000
       0.000  0.500  0.000
       0.000  0.000  0.500
     ------------------------ ATOM  152 ------------------------
[...]
   -19.5331 -19.5330 -19.5330 -19.5328 -19.5326 -19.5323 -19.5321 -19.5320
   -19.5315 -19.5313 -19.5307 -19.5307 -19.5306 -19.5300 -19.5299 -19.5298
   -19.5296 -19.5295 -19.5288 -19.5280 -19.5279 -19.5278 -19.5276 -19.5275
   -19.5270 -19.5269 -19.5264 -19.5263 -19.5261 -19.5259 -19.5258 -19.5255
   -19.5252 -19.5251 -19.5249 -19.5244 -19.5240 -19.5237 -19.5235 -19.5232
   -19.5231 -19.5229 -19.5228 -19.5226 -19.5223 -19.5218 -19.5216 -19.5213
   -19.5212 -19.5210 -19.5208 -19.5205 -19.5202 -19.5200 -19.5200 -19.5199
   -19.5189 -19.5186 -19.5185 -19.5182 -19.5181 -19.5180 -19.5178 -19.5175
   -19.5167 -19.5167 -19.5162 -19.5158 -19.5156 -19.5151 -19.5151 -19.5146
   -19.5145 -19.5144 -19.5142 -19.5141 -19.5141 -19.5139 -19.5138 -19.5136
   -19.5133 -19.5132 -19.5129 -19.5128 -19.5125 -19.5120 -19.5120 -19.5117
   -19.5116 -19.5115 -19.5114 -19.5112 -19.5112 -19.5110 -19.5106 -19.5105
   -19.5100 -19.5098 -19.5096 -19.5092 -19.5090 -19.5087 -19.5085 -19.5080
   -19.5078 -19.5076 -19.5074 -19.5072 -19.5069 -19.5068 -19.5065 -19.5063
   -19.5060 -19.5059 -19.5056 -19.5052 -19.5049 -19.5048 -19.5046 -19.5045
   -19.5044 -19.5040 -19.5039 -19.5039 -19.5036 -19.5035 -19.5035 -19.5032
   -19.5031 -19.5030 -19.5029 -19.5023 -19.5020 -19.5011 -19.5010 -19.5007
   -19.5005 -19.5000 -19.4999 -19.4992 -19.4991 -19.4979 -19.4979 -19.4977
   -19.4976 -19.4970 -19.4968 -19.4964 -19.4956 -19.4953 -19.4939 -19.4933
   -19.4932 -19.4931 -19.4928 -19.4927 -19.4925 -19.4922 -19.4919 -19.4918
   -19.4918 -19.4917 -19.4913 -19.4908 -19.4908 -19.4906 -19.4905 -19.4902
   -19.4898 -19.4883 -19.4877 -19.4876 -19.4873 -19.4872 -19.4871 -19.4871
   -19.4867 -19.4858 -19.4853 -19.4846 -19.4840 -19.4837 -19.4831 -19.4826
   -19.4808 -19.4801 -19.4798 -19.4793 -19.4787 -19.4786 -19.4765 -19.4738
   -19.4734 -19.4729 -19.4727 -19.4719 -19.4716 -19.4712 -19.4710 -19.4697
   -19.4649 -19.4636 -19.4612 -19.4555  -7.4066  -7.3935  -7.3924  -7.3877
    -7.3862  -7.3848  -7.3692  -7.3636  -7.3623  -7.3487  -7.3446  -7.3421
    -7.3414  -7.3388  -7.3380  -7.3373  -7.3369  -7.3352  -7.3341  -7.3339
    -7.3337  -7.3321  -7.3308  -7.3303  -7.3284  -7.3277  -7.3254  -7.3245
    -7.3218  -7.3190  -7.3188  -7.3164  -7.3132  -7.3129  -7.3120  -7.3101
    -7.3098  -7.3078  -7.3072  -7.3062  -7.3034  -7.3018  -7.3006  -7.2994
    -7.2985  -7.2973  -7.2959  -7.2950  -7.2948  -7.2941  -7.2939  -7.2927
    -7.2926  -7.2922  -7.2918  -7.2914  -7.2910  -7.2906  -7.2899  -7.2891
    -7.2884  -7.2880  -7.2874  -7.2865  -7.2861  -7.2856  -7.2852  -7.2846
    -7.2842  -7.2820  -7.2808  -7.2803  -7.2800  -7.2798  -7.2794  -7.2787
    -7.2781  -7.2765  -7.2761  -7.2757  -7.2742  -7.2730  -7.2724  -7.2716
    -7.2710  -7.2705  -7.2702  -7.2696  -7.2685  -7.2678  -7.2671  -7.2665
    -7.2650  -7.2647  -7.2642  -7.2635  -7.2627  -7.2615  -7.2602  -7.2597
    -7.2591  -7.2589  -7.2578  -7.2572  -7.2560  -7.2548  -7.2547  -7.2542
    -7.2539  -7.2533  -7.2531  -7.2525  -7.2523  -7.2516  -7.2509  -7.2503
    -7.2499  -7.2491  -7.2486  -7.2478  -7.2471  -7.2470  -7.2465  -7.2461
    -7.2458  -7.2449  -7.2444  -7.2439  -7.2429  -7.2425  -7.2422  -7.2420
    -7.2418  -7.2411  -7.2403  -7.2398  -7.2390  -7.2386  -7.2382  -7.2377
    -7.2373  -7.2366  -7.2366  -7.2355  -7.2352  -7.2351  -7.2343  -7.2341
    -7.2336  -7.2330  -7.2327  -7.2327  -7.2325  -7.2320  -7.2316  -7.2311
    -7.2307  -7.2302  -7.2299  -7.2293  -7.2290  -7.2286  -7.2278  -7.2275
    -7.2271  -7.2265  -7.2262  -7.2260  -7.2254  -7.2252  -7.2247  -7.2238
    -7.2238  -7.2229  -7.2222  -7.2219  -7.2215  -7.2206  -7.2202  -7.2199
    -7.2196  -7.2190  -7.2189  -7.2182  -7.2177  -7.2166  -7.2163  -7.2159
    -7.2155  -7.2152  -7.2149  -7.2142  -7.2129  -7.2126  -7.2125  -7.2116
    -7.2109  -7.2107  -7.2100  -7.2096  -7.2095  -7.2092  -7.2084  -7.2082
    -7.2077  -7.2076  -7.2074  -7.2069  -7.2062  -7.2057  -7.2052  -7.2050
    -7.2042  -7.2040  -7.2035  -7.2032  -7.2025  -7.2023  -7.2019  -7.2013
    -7.2008  -7.2002  -7.1999  -7.1996  -7.1989  -7.1987  -7.1985  -7.1980
    -7.1978  -7.1973  -7.1970  -7.1963  -7.1961  -7.1955  -7.1952  -7.1950
    -7.1947  -7.1942  -7.1941  -7.1939  -7.1934  -7.1928  -7.1925  -7.1918
    -7.1913  -7.1911  -7.1899  -7.1897  -7.1894  -7.1889  -7.1880  -7.1876
    -7.1868  -7.1867  -7.1858  -7.1853  -7.1848  -7.1842  -7.1841  -7.1838
    -7.1835  -7.1831  -7.1826  -7.1822  -7.1818  -7.1817  -7.1813  -7.1802
    -7.1799  -7.1798  -7.1792  -7.1791  -7.1783  -7.1782  -7.1772  -7.1766
    -7.1765  -7.1759  -7.1758  -7.1755  -7.1752  -7.1749  -7.1745  -7.1744
    -7.1734  -7.1727  -7.1725  -7.1718  -7.1710  -7.1708  -7.1705  -7.1701
    -7.1696  -7.1689  -7.1680  -7.1679  -7.1674  -7.1666  -7.1662  -7.1654
    -7.1651  -7.1642  -7.1634  -7.1630  -7.1623  -7.1622  -7.1614  -7.1613
    -7.1604  -7.1601  -7.1600  -7.1589  -7.1583  -7.1581  -7.1580  -7.1569
    -7.1560  -7.1558  -7.1556  -7.1549  -7.1546  -7.1542  -7.1539  -7.1532
    -7.1530  -7.1525  -7.1523  -7.1518  -7.1516  -7.1504  -7.1496  -7.1491
    -7.1491  -7.1490  -7.1483  -7.1480  -7.1476  -7.1471  -7.1466  -7.1459
    -7.1455  -7.1450  -7.1447  -7.1442  -7.1441  -7.1437  -7.1436  -7.1434
    -7.1430  -7.1425  -7.1420  -7.1416  -7.1413  -7.1410  -7.1410  -7.1405
    -7.1399  -7.1396  -7.1394  -7.1391  -7.1390  -7.1384  -7.1374  -7.1371
    -7.1369  -7.1366  -7.1361  -7.1351  -7.1350  -7.1345  -7.1343  -7.1341
    -7.1333  -7.1332  -7.1330  -7.1324  -7.1321  -7.1314  -7.1304  -7.1299
    -7.1291  -7.1285  -7.1281  -7.1273  -7.1263  -7.1260  -7.1258  -7.1255
    -7.1248  -7.1238  -7.1237  -7.1232  -7.1228  -7.1223  -7.1214  -7.1212
    -7.1209  -7.1206  -7.1198  -7.1186  -7.1185  -7.1183  -7.1175  -7.1166
    -7.1161  -7.1155  -7.1152  -7.1148  -7.1141  -7.1136  -7.1126  -7.1125
    -7.1118  -7.1115  -7.1110  -7.1108  -7.1101  -7.1097  -7.1095  -7.1093
    -7.1087  -7.1082  -7.1075  -7.1073  -7.1071  -7.1067  -7.1066  -7.1060
    -7.1052  -7.1048  -7.1046  -7.1042  -7.1037  -7.1031  -7.1027  -7.1013
    -7.1012  -7.1004  -7.0991  -7.0987  -7.0985  -7.0977  -7.0974  -7.0973
    -7.0972  -7.0965  -7.0960  -7.0958  -7.0948  -7.0938  -7.0934  -7.0925
    -7.0923  -7.0919  -7.0914  -7.0910  -7.0907  -7.0904  -7.0903  -7.0890
    -7.0888  -7.0884  -7.0881  -7.0869  -7.0866  -7.0860  -7.0858  -7.0854
    -7.0848  -7.0842  -7.0825  -7.0820  -7.0816  -7.0803  -7.0796  -7.0794
    -7.0789  -7.0788  -7.0781  -7.0766  -7.0754  -7.0744  -7.0741  -7.0722
    -7.0719  -7.0713  -7.0712  -7.0705  -7.0698  -7.0684  -7.0676  -7.0670
    -7.0663  -7.0661  -7.0647  -7.0644  -7.0642  -7.0626  -7.0618  -7.0606
    -7.0596  -7.0577  -7.0571  -7.0569  -7.0568  -7.0566  -7.0544  -7.0540
    -7.0533  -7.0520  -7.0511  -7.0510  -7.0498  -7.0492  -7.0478  -7.0468
    -7.0463  -7.0458  -7.0443  -7.0437  -7.0425  -7.0424  -7.0409  -7.0403
    -7.0277  -7.0245  -7.0216  -7.0203  -7.0199  -7.0196  -7.0193  -7.0116
    -7.0086  -7.0057  -6.9997  -6.9950  -6.9763  -6.9759  -6.9636  -6.9629
    -3.5623  -3.5472  -3.5028  -3.4020  -3.3391  -3.2761  -3.2510  -3.2331
    -3.2238  -3.1993  -3.1644  -3.1022  -3.0888  -3.0305  -3.0124  -2.9767
    -2.9387  -2.9080  -2.8709  -2.8544  -2.8500  -2.8208  -2.7958  -2.7688
    -2.7407  -2.7295  -2.6866  -2.6574  -2.6084  -2.5865  -2.5750  -2.5247
    -2.5149  -2.4847  -2.4546  -2.4218  -2.3917  -2.3842  -2.3664  -2.3448
    -2.3069  -2.2958  -2.2860  -2.2665  -2.2595  -2.2276  -2.2084  -2.1878
    -2.1478  -2.1164  -2.0916  -2.0540  -2.0434  -1.9783  -1.9652  -1.9590
    -1.9247  -1.9171  -1.8775  -1.8519  -1.8272  -1.7832  -1.7673  -1.7483
    -1.7216  -1.7048  -1.6846  -1.6504  -1.6404  -1.6300  -1.6060  -1.5871
    -1.5483  -1.5459  -1.5258  -1.5015  -1.4769  -1.4395  -1.4181  -1.3872
    -1.3449  -1.3438  -1.3296  -1.3106  -1.2832  -1.2529  -1.2404  -1.2243
    -1.2082  -1.1742  -1.1666  -1.1354  -1.1005  -1.0620  -1.0353  -1.0228
    -1.0104  -0.9996  -0.9706  -0.9270  -0.8879  -0.8474  -0.8291  -0.8152
    -0.7959  -0.7699  -0.7460  -0.6972  -0.3674  -0.3554  -0.2421  -0.1740
     0.0433   0.0459   0.0577   0.0732   0.0797   0.1090   0.1234   0.1430
     0.1535   0.1692   0.1877   0.2094   0.2192   0.2290   0.2343   0.2647
     0.2748   0.2974   0.3075   0.3143   0.3286   0.3670   0.3929   0.4016
     0.4049   0.4537   0.4741   0.4847   0.4978   0.5180   0.5464   0.5805
     0.6020   0.6259   0.6366   0.6439   0.6632   0.6762   0.7245   0.7545
     0.7838   0.7908   0.8236   0.8484   0.8689   0.8802   0.8967   0.8982
     0.9375   0.9531   0.9704   0.9905   1.0167   1.0303   1.0587   1.0826
     1.3793   1.4181   1.4661   1.4894   1.5010   1.5462   1.6132   1.6250
     1.6526   1.6760   1.7072   1.7279   1.7745   1.7969   1.8153   1.8317
     1.8870   1.9203   1.9302   1.9469   1.9706   1.9955   2.0003   2.0217
     2.0560   2.0690   2.0885   2.1291   2.8359   2.8747   2.9245   2.9497
     2.9760   2.9901   2.9969   3.0110   3.0152   3.0701   3.0804   3.0963
     3.1125   3.1408   3.1476   3.2233   3.3100   3.3194   3.3321   3.3416
     3.3455   3.3637   3.3978   3.4124   3.4332   3.4529   3.4615   3.4797
     3.4845   3.4970   3.5114   3.5235   3.5607   3.5738   3.5876   3.5936
     3.6045   3.6345   3.6360   3.6483   3.6640   3.6847   3.6899   3.7104
     3.7214   3.7307   3.7415   3.7577   3.7701   3.7967   3.8163   3.8362
     3.8500   3.8590   3.8639   3.8834   3.8853   3.9166   3.9322   3.9506
     3.9736   3.9791   4.0238   4.0443   4.1713   4.2153   4.2320   4.2668
     4.3182   4.3277   4.3575   4.3686   4.3950   4.4062   4.4305   4.4426
     4.4495   4.4718   4.4781   4.5206   4.5246   4.5489   4.5551   4.5589
     4.5785   4.5858   4.6003   4.6132   4.6299   4.6414   4.6638   4.6640
     4.6722   4.6775   4.7058   4.7307   4.7494   4.7557   4.7724   4.7909
     4.7996   4.8325   4.8349   4.8515   4.8609   4.8854   4.8874   4.9093
     4.9223   4.9386   4.9590   4.9635   4.9689   5.0047   5.0146   5.0303
     5.0412   5.0655   5.0699   5.0762   5.0905   5.1072   5.1237   5.1395
     5.1490   5.1653   5.1792   5.1933   5.2081   5.2218   5.2407   5.2515
     5.2703   5.2741   5.2998   5.3034   5.3209   5.3371   5.3426   5.3655
     5.3761   5.3894   5.4056   5.4256   5.4282   5.4460   5.4735   5.4835
     5.4979   5.5255   5.5353   5.5504   5.5697   5.5760   5.6035   5.6275
     5.6376   5.6409   5.6548   5.6687   5.6925   5.7034   5.7180   5.7247
     5.7407   5.7503   5.7600   5.7749   5.7806   5.7917   5.8343   5.8495
     5.8555   5.8639   5.9014   5.9242   5.9480   5.9752   5.9925   6.0013
     6.0182   6.0369   6.0759   6.1204   6.1282   6.1388   6.1586   6.1779
     6.2058   6.2193   6.2391   6.2593   6.2760   6.2896   6.3018   6.3158
     6.3328   6.3542   6.3799   6.3949   6.4091   6.4293   6.4391   6.4517
     6.4618   6.4978   6.5068   6.5327   6.5456   6.5493   6.5570   6.6141
     6.6337   6.6417   6.6668   6.6832   6.7216   6.7347   6.7607   6.7854
     6.7971   6.8038   6.8135   6.8338   6.8436   6.8803   6.8993   6.9149
     6.9631   6.9773   7.0151   7.0882   7.4214   7.4825   7.5813   7.6583
     9.3254   9.3363   9.3766   9.3972   9.4272   9.4902   9.5247   9.5256
     9.5754   9.6263   9.6401   9.6762   9.7107   9.7129   9.7278   9.7424
     9.7588   9.7662   9.7857   9.8066   9.8108   9.8158   9.8261   9.8424
     9.8555   9.8782   9.8954   9.9056   9.9128   9.9260   9.9693  10.0027
    10.0110  10.0196  10.0227  10.0521  10.0650  10.0864  10.0915  10.1103
    10.1136  10.1288  10.1504  10.1675  10.1844  10.1897  10.2018  10.2112
    10.2173  10.2354  10.2440  10.2574  10.2634  10.2799  10.2967  10.3129
    10.3257  10.3401  10.3453  10.3576  10.3699  10.3739  10.4051  10.4236
    10.4375  10.4505  10.4601  10.4691  10.4894  10.5015  10.5073  10.5130
    10.5327  10.5361  10.5432  10.5446  10.5658  10.5677  10.5782  10.5964
    10.6022  10.6080  10.6186  10.6371  10.6614  10.6851  10.7026  10.7069
    10.7251  10.7393  10.7452  10.7460  10.7643  10.7701  10.7889  10.7945
    10.8034  10.8093  10.8132  10.8233  10.8343  10.8568  10.8779  10.8844
    10.8982  10.9103  10.9321  10.9761  11.2591  11.2702  11.3115  11.3252
    11.4185  11.4687  11.4958  11.5215  11.5451  11.5551  11.5747  11.5823
    11.6059  11.6112  11.6323  11.6433  11.6527  11.6731  11.6770  11.6990
    11.7126  11.7312  11.7432  11.7454  11.7670  11.7883  11.7950  11.8207
    11.8446  11.8588  11.8666  11.8759  11.8856  11.8888  11.9047  11.9246
    11.9384  11.9415  11.9482  11.9681  11.9777  11.9871  12.0037  12.0504
    12.1281  12.1579  12.1670  12.1777  12.1857  12.1943  12.2058  12.2148
    12.2269  12.2454  12.2547  12.2592  12.2692  12.2879  12.3125  12.3273
    12.3706  12.4004  12.4029  12.4208  12.4418  12.4449  12.4598  12.4630
    12.4692  12.4777  12.4871  12.4893  12.4942  12.5063  12.5271  12.5351
    12.5537  12.5548  12.5659  12.5731  12.5800  12.5870  12.5915  12.6006
    12.6115  12.6223  12.6325  12.6361  12.6438  12.6501  12.6638  12.6694
    12.6871  12.6895  12.6964  12.7046  12.7136  12.7298  12.7379  12.7490
    12.7552  12.7618  12.7745  12.7793  12.7877  12.8014  12.8092  12.8163
    12.8222  12.8494  12.8609  12.8711  12.9160  12.9256  12.9501  12.9685
    12.9843  13.0099  13.0335  13.0378  13.1266  13.1281  13.1498  13.1568
    13.1682  13.1737  13.1932  13.2022  13.2242  13.2293  13.2534  13.2677
    13.2883  13.2925  13.3029  13.3111  13.3176  13.3312  13.3431  13.3515
    13.3619  13.3698  13.3809  13.3833  13.3981  13.4054  13.4085  13.4253
    13.4376  13.4415  13.4493  13.4598  13.4738  13.4901  13.4929  13.5043
    13.5111  13.5166  13.5304  13.5555  13.5631  13.5742  13.5826  13.5900
    13.6003  13.6192  13.6373  13.6451  13.6555  13.6798  13.6809  13.6893
    13.7169  13.7474  13.7691  13.7870  13.8468  13.8642  13.8717  13.8839
    13.8943  13.9004  13.9197  13.9458  13.9527  13.9591  13.9734  13.9823
    13.9895  14.0016  14.0083  14.0125  14.0178  14.0272  14.0310  14.0478
    14.0551  14.0669  14.0812  14.0883  14.0936  14.1055  14.1130  14.1197
    14.1288  14.1395  14.1415  14.1489  14.1516  14.1591  14.1779  14.1937
    14.2017  14.2102  14.2142  14.2158  14.2332  14.2445  14.2557  14.2596
    14.2736  14.2780  14.2887  14.2968  14.3091  14.3257  14.3287  14.3496
    14.3549  14.3613  14.3755  14.3789  14.3829  14.3934  14.4070  14.4100
    14.4292  14.4486  14.4624  14.4722  14.4803  14.5157  14.5181  14.5408
    14.6305  14.6869  14.7054  14.7202  14.7243  14.7401  14.7901  14.7991
    14.9270  14.9395  14.9671  14.9794  15.0112  15.0233  15.0560  15.0921
    15.1456  15.1647  15.1761  15.2139  15.2212  15.2395  15.2514  15.2707
    15.2803  15.3046  15.3120  15.3306  15.3391  15.3644  15.3825  15.3881
    15.5136  15.5345  15.5420  15.5757  15.5911  15.6012  15.6141  15.6282
    15.6359  15.6403  15.6598  15.6669  15.6727  15.6912  15.7310  15.7417
    15.7507  15.7574  15.7661  15.7897  15.8036  15.8079  15.8140  15.8323
    15.8454  15.8493  15.8763  15.8942  15.8970  15.9063  15.9155  15.9200
    15.9446  15.9503  15.9687  15.9893  15.9998  16.0168  16.0335  16.0445
    16.0505  16.0909  16.1059  16.1099  16.1295  16.1523  16.1703  16.1801
    16.1983  16.2070  16.2241  16.2506  16.2608  16.3053  16.3332  16.3647
    16.3752  16.3822  16.4075  16.4434  16.4630  16.4764  16.5047  16.5145
    16.5159  16.5362  16.5400  16.5574  16.5684  16.5744  16.5756  16.5994
    16.6007  16.6043  16.6087  16.6309  16.6412  16.6455  16.6630  16.6847
    16.6965  16.7102  16.7354  16.7630  16.7878  16.7999  16.8105  16.8313
    16.8361  16.8484  16.8556  16.8705  16.8878  16.8938  16.9107  16.9177
    16.9250  16.9355  16.9372  16.9430  16.9583  16.9638  16.9747  17.0003
    17.0103  17.0129  17.0204  17.0330  17.0423  17.0513  17.0599  17.0682
    17.0736  17.0959  17.1139  17.1265  17.1304  17.1449  17.1457  17.1564
    17.1627  17.1657  17.1750  17.1832  17.2024  17.2096  17.2258  17.2314
    17.2483  17.2567  17.2667  17.2850  17.2968  17.3043  17.3234  17.3344
    17.3669  17.3760  17.3914  17.4060  17.4097  17.4152  17.4258  17.4304
    17.4440  17.4581  17.4610  17.4687  17.4807  17.4877  17.4891  17.4973
    17.5008  17.5092  17.5272  17.5315  17.5385  17.5434  17.5543  17.5700
    17.5755  17.5770  17.5791  17.5946  17.6005  17.6053  17.6226  17.6259
    17.6377  17.6475  17.6634  17.6706  17.6778  17.6922  17.6934  17.7109
    17.7336  17.7388  17.7586  17.8001  17.8736  17.8899  17.8953  17.9308
    17.9873  18.0119  18.0232  18.0316  18.0562  18.0621  18.0753  18.0806
    18.0853  18.1059  18.1121  18.1194  18.1291  18.1363  18.1444  18.1493
    18.1656  18.1672  18.1819  18.1940  18.2086  18.2139  18.2257  18.2304
    18.2345  18.2479  18.2797  18.2829  18.3070  18.3232  18.3581  18.3662
    18.3991  18.4266  18.4558  18.4702  18.4771  18.4925  18.5003  18.5158
    18.5261  18.5428  18.5535  18.5663  18.5781  18.5948  18.6147  18.6169
    18.6258  18.6269  18.6585  18.6795  18.7012  18.7178  18.7240  18.7415
    18.7776  18.7994  18.8197  18.8249  18.8426  18.8620  18.8814  18.8844
    18.8901  18.9139  18.9232  18.9371  18.9558  18.9635  18.9749  18.9797
    18.9863  19.0080  19.0140  19.0251  19.0314  19.0588  19.0763  19.0869

     highest occupied, lowest unoccupied level (ev):     7.6880    8.4701

!    total energy              =  -37799.94634441 Ry
     estimated scf accuracy    <       0.00000405 Ry

     The total energy is the sum of the following terms:
     one-electron contribution =  -19632.64591516 Ry
     hartree contribution      =   11813.59438550 Ry
     xc contribution           =   -9549.27556602 Ry
     ewald contribution        =  -20429.88093952 Ry
     Hubbard energy            =      -1.73830921 Ry

     convergence has been achieved in  12 iterations

     Writing all to output data dir ./tmp_In0.0Ga1.0As0.5Sb0.5_cube_3x3x3.0/In0.0Ga1.0As0.5Sb0.5_cube_3x3x3.0.save/ :
     XML data file, charge density, pseudopotentials, collected wavefunctions

     init_run     :    288.63s CPU    291.48s WALL (       1 calls)
     electrons    :  10686.19s CPU  10708.85s WALL (       1 calls)

     Called by init_run:
     wfcinit      :    280.63s CPU    283.27s WALL (       1 calls)
     potinit      :      0.42s CPU      0.46s WALL (       1 calls)
     hinit0       :      1.74s CPU      1.78s WALL (       1 calls)

     Called by electrons:
     c_bands      :  10284.95s CPU  10306.31s WALL (      13 calls)
     sum_band     :    395.29s CPU    395.98s WALL (      13 calls)
     v_of_rho     :      4.51s CPU      4.66s WALL (      13 calls)
     mix_rho      :      0.62s CPU      0.63s WALL (      13 calls)

     Called by c_bands:
     init_us_2    :     41.58s CPU     42.26s WALL (      28 calls)
     cegterg      :   9989.01s CPU  10009.06s WALL (      13 calls)

     Called by *egterg:
     cdiaghg      :    736.47s CPU    737.32s WALL (      99 calls)
     h_psi        :   6146.10s CPU   6157.37s WALL (     101 calls)
     g_psi        :      4.58s CPU      4.58s WALL (      87 calls)

     Called by h_psi:
     h_psi:calbec :   1034.20s CPU   1034.27s WALL (     101 calls)
     vloc_psi     :   1063.24s CPU   1065.41s WALL (     101 calls)
     add_vuspsi   :   1018.51s CPU   1020.70s WALL (     101 calls)
     vhpsi        :   3020.58s CPU   3020.78s WALL (     101 calls)

     General routines
     calbec       :   1330.28s CPU   1330.38s WALL (     216 calls)
     fft          :      3.84s CPU      4.02s WALL (     131 calls)
     ffts         :      0.26s CPU      0.26s WALL (      13 calls)
     fftw         :   1054.68s CPU   1056.82s WALL (  161586 calls)

     Parallel routines

     Hubbard U routines
     new_ns       :     74.00s CPU     74.00s WALL (      13 calls)
     vhpsi        :   3020.58s CPU   3020.78s WALL (     101 calls)

     PWSCF        :      3h 3m CPU      3h 4m WALL


   This run was terminated on:  17:43:11  15May2025            

=------------------------------------------------------------------------------=
   JOB DONE.
=------------------------------------------------------------------------------=
