
     Program PWSCF v.7.3.1 starts on 13Jun2025 at 14:31:23 

     This program is part of the open-source Quantum ESPRESSO suite
     for quantum simulation of materials; please cite
         "P. Giannozzi et al., J. Phys.:Condens. Matter 21 395502 (2009);
         "P. Giannozzi et al., J. Phys.:Condens. Matter 29 465901 (2017);
         "P. Giannozzi et al., J. Chem. Phys. 152 154105 (2020);
          URL http://www.quantum-espresso.org", 
     in publications or presentations arising from this work. More details at
     http://www.quantum-espresso.org/quote

     Parallel version (MPI), running on   640 processors

     MPI processes distributed on     5 nodes
     480881 MiB available memory on the printing compute node when the environment starts

     Reading input from In0.0Ga1.0As0.25Sb0.75_cube_3x3x3.5.scf.in
Warning: card &CELL ignored
Warning: card   CELL_DOFREE = 'ALL', ignored
Warning: card / ignored

     Current dimensions of program PWSCF are:
     Max number of different atomic species (ntypx) = 10
     Max number of k-points (npk) =  40000
     Max angular momentum in pseudopotentials (lmaxx) =  4

     K-points division:     npool     =       8
     R & G space division:  proc/nbgrp/npool/nimage =      80
     Subspace diagonalization in iterative solution of the eigenvalue problem:
     one sub-group per band group will be used
     custom distributed-memory algorithm (size of sub-group:  8*  8 procs)


     Parallelization info
     --------------------
     sticks:   dense  smooth     PW     G-vecs:    dense   smooth      PW
     Min         553     553    142                87554    87554   11426
     Max         555     555    143                87558    87558   11431
     Sum       44261   44261  11417              7004513  7004513  914193

     Using Slab Decomposition



     bravais-lattice index     =            1
     lattice parameter (alat)  =      34.0413  a.u.
     unit-cell volume          =   39447.2710 (a.u.)^3
     number of atoms/cell      =          216
     number of atomic types    =            4
     number of electrons       =      3024.00
     number of Kohn-Sham states=         2160
     kinetic-energy cutoff     =     120.0000  Ry
     charge density cutoff     =     480.0000  Ry
     scf convergence threshold =      1.0E-05
     mixing beta               =       0.6500
     number of iterations used =            8  plain     mixing
     Exchange-correlation= PBE
                           (   1   4   3   4   0   0   0)
     Hubbard projectors: atomic
     Hubbard parameters of DFT+U (Dudarev formulation) in eV:
     U(As-4p) =  5.8400
     U(Ga-4p) = -2.3350
     U(In-5p) = -1.0575
     U(Sb-5p) =  4.8900

     Internal variables: lda_plus_u =T, lda_plus_u_kind = 0

     celldm(1)=  34.041262  celldm(2)=   0.000000  celldm(3)=   0.000000
     celldm(4)=   0.000000  celldm(5)=   0.000000  celldm(6)=   0.000000

     crystal axes: (cart. coord. in units of alat)
               a(1) = (   1.000000   0.000000   0.000000 )  
               a(2) = (   0.000000   1.000000   0.000000 )  
               a(3) = (   0.000000   0.000000   1.000000 )  

     reciprocal axes: (cart. coord. in units 2 pi/alat)
               b(1) = (  1.000000  0.000000  0.000000 )  
               b(2) = (  0.000000  1.000000  0.000000 )  
               b(3) = (  0.000000  0.000000  1.000000 )  


     PseudoPot. # 1 for As read from file:
     /work/i254/i254/gentles/data/pseudos/As.pbe.NC-SR.standard.v0.5.UPF
     MD5 check sum: bfe1a874457ce592347346129958e7cf
     Pseudo is Norm-conserving + core correction, Zval = 15.0
     Generated using ONCVPSP code by D. R. Hamann
     Using radial grid of 1358 points,  6 beta functions with: 
                l(1) =   0
                l(2) =   0
                l(3) =   1
                l(4) =   1
                l(5) =   2
                l(6) =   2

     PseudoPot. # 2 for Ga read from file:
     /work/i254/i254/gentles/data/pseudos/Ga.pbe.NC-SR.standard.v0.5.UPF
     MD5 check sum: 2bb81bf6f0a8d9832cf3329850435ecf
     Pseudo is Norm-conserving + core correction, Zval = 13.0
     Generated using ONCVPSP code by D. R. Hamann
     Using radial grid of 1902 points,  6 beta functions with: 
                l(1) =   0
                l(2) =   0
                l(3) =   1
                l(4) =   1
                l(5) =   2
                l(6) =   2

     PseudoPot. # 3 for In read from file:
     /work/i254/i254/gentles/data/pseudos/In.pbe.NC-SR.standard.v0.5.UPF
     MD5 check sum: 835f4bf908c982ff75c88e16816a8d7f
     Pseudo is Norm-conserving + core correction, Zval = 13.0
     Generated using ONCVPSP code by D. R. Hamann
     Using radial grid of 1964 points,  6 beta functions with: 
                l(1) =   0
                l(2) =   0
                l(3) =   1
                l(4) =   1
                l(5) =   2
                l(6) =   2

     PseudoPot. # 4 for Sb read from file:
     /work/i254/i254/gentles/data/pseudos/Sb.pbe.NC-SR.standard.v0.5.UPF
     MD5 check sum: 127f69b6101c45666faeae1b5d611565
     Pseudo is Norm-conserving + core correction, Zval = 15.0
     Generated using ONCVPSP code by D. R. Hamann
     Using radial grid of 1434 points,  6 beta functions with: 
                l(1) =   0
                l(2) =   0
                l(3) =   1
                l(4) =   1
                l(5) =   2
                l(6) =   2

     atomic species   valence    mass     pseudopotential
     As               15.00    74.92160     As( 1.00)
     Ga               13.00    69.72300     Ga( 1.00)
     In               13.00   114.81800     In( 1.00)
     Sb               15.00   121.76000     Sb( 1.00)

     No symmetry found



   Cartesian axes

     site n.     atom                  positions (alat units)
         1        Ga     tau(   1) = (   0.0032860  -0.0073330  -0.0035970  )
         2        Ga     tau(   2) = (  -0.0008740   0.1648920   0.1668930  )
         3        Ga     tau(   3) = (   0.1693420  -0.0079260   0.1629710  )
         4        Ga     tau(   4) = (   0.1671530   0.1661720  -0.0007900  )
         5        Sb     tau(   5) = (   0.0836950   0.0790040   0.0824970  )
         6        Sb     tau(   6) = (   0.0827860   0.2500030   0.2498160  )
         7        Sb     tau(   7) = (   0.2471080   0.0804030   0.2498190  )
         8        Sb     tau(   8) = (   0.2505300   0.2514240   0.0829400  )
         9        Ga     tau(   9) = (   0.0050720   0.0014560   0.3377830  )
        10        Ga     tau(  10) = (   0.0037740   0.1605480   0.4964080  )
        11        Ga     tau(  11) = (   0.1617290   0.0027750   0.4962700  )
        12        Ga     tau(  12) = (   0.1612340   0.1611950   0.3363080  )
        13        As     tau(  13) = (   0.0829120   0.0823240   0.4167450  )
        14        Sb     tau(  14) = (   0.0814110   0.2476020   0.5849190  )
        15        Sb     tau(  15) = (   0.2478460   0.0818650   0.5850820  )
        16        Sb     tau(  16) = (   0.2486390   0.2475150   0.4155610  )
        17        Ga     tau(  17) = (  -0.0039930  -0.0032370   0.6752150  )
        18        Ga     tau(  18) = (   0.0023760   0.1628690   0.8268900  )
        19        Ga     tau(  19) = (   0.1562200  -0.0011620   0.8335670  )
        20        Ga     tau(  20) = (   0.1602680   0.1592510   0.6733360  )
        21        As     tau(  21) = (   0.0792270   0.0783580   0.7511050  )
        22        Sb     tau(  22) = (   0.0819520   0.2502150   0.9151120  )
        23        Sb     tau(  23) = (   0.2491980   0.0799250   0.9154780  )
        24        Sb     tau(  24) = (   0.2507960   0.2456860   0.7516570  )
        25        Ga     tau(  25) = (   0.0037860   0.3385930   0.0028550  )
        26        Ga     tau(  26) = (  -0.0007130   0.5052920   0.1572840  )
        27        Ga     tau(  27) = (   0.1609150   0.3386860   0.1618810  )
        28        Ga     tau(  28) = (   0.1600660   0.4968520   0.0047990  )
        29        As     tau(  29) = (   0.0801600   0.4192770   0.0837220  )
        30        Sb     tau(  30) = (   0.0793830   0.5877200   0.2493340  )
        31        Sb     tau(  31) = (   0.2466970   0.4175360   0.2489710  )
        32        Sb     tau(  32) = (   0.2474170   0.5841390   0.0846160  )
        33        Ga     tau(  33) = (  -0.0026830   0.3335320   0.3337200  )
        34        Ga     tau(  34) = (  -0.0073220   0.5061820   0.5035080  )
        35        Ga     tau(  35) = (   0.1656780   0.3326270   0.5007870  )
        36        Ga     tau(  36) = (   0.1627220   0.5017210   0.3335680  )
        37        Sb     tau(  37) = (   0.0782690   0.4190940   0.4203620  )
        38        As     tau(  38) = (   0.0760640   0.5844510   0.5813620  )
        39        Sb     tau(  39) = (   0.2482420   0.4202570   0.5823770  )
        40        Sb     tau(  40) = (   0.2461790   0.5880340   0.4163840  )
        41        Ga     tau(  41) = (  -0.0058810   0.3395670   0.6597940  )
        42        Ga     tau(  42) = (  -0.0057620   0.5064870   0.8276420  )
        43        Ga     tau(  43) = (   0.1654050   0.3345670   0.8308990  )
        44        Ga     tau(  44) = (   0.1587600   0.5068290   0.6591020  )
        45        Sb     tau(  45) = (   0.0797830   0.4201810   0.7456520  )
        46        Sb     tau(  46) = (   0.0786400   0.5836810   0.9180120  )
        47        Sb     tau(  47) = (   0.2480990   0.4160970   0.9184280  )
        48        Sb     tau(  48) = (   0.2448710   0.5849210   0.7486580  )
        49        Ga     tau(  49) = (  -0.0086390   0.6690490  -0.0016700  )
        50        Ga     tau(  50) = (  -0.0071860   0.8281910   0.1753270  )
        51        Ga     tau(  51) = (   0.1686450   0.6730090   0.1704580  )
        52        Ga     tau(  52) = (   0.1626370   0.8419850  -0.0002890  )
        53        Sb     tau(  53) = (   0.0794420   0.7529150   0.0838120  )
        54        Sb     tau(  54) = (   0.0836770   0.9123500   0.2523990  )
        55        As     tau(  55) = (   0.2472870   0.7521070   0.2504780  )
        56        As     tau(  56) = (   0.2470890   0.9138460   0.0833100  )
        57        Ga     tau(  57) = (  -0.0063210   0.6693260   0.3372340  )
        58        Ga     tau(  58) = (   0.0025230   0.8294090   0.4965370  )
        59        Ga     tau(  59) = (   0.1524270   0.6660760   0.4992740  )
        60        Ga     tau(  60) = (   0.1640890   0.8225680   0.3350280  )
        61        As     tau(  61) = (   0.0786160   0.7471090   0.4153550  )
        62        Sb     tau(  62) = (   0.0801670   0.9180310   0.5833170  )
        63        Sb     tau(  63) = (   0.2445560   0.7477590   0.5810950  )
        64        Sb     tau(  64) = (   0.2465420   0.9149550   0.4147740  )
        65        Ga     tau(  65) = (  -0.0018380   0.6599360   0.6658810  )
        66        Ga     tau(  66) = (  -0.0048890   0.8351370   0.8390390  )
        67        Ga     tau(  67) = (   0.1634680   0.6692710   0.8357880  )
        68        Ga     tau(  68) = (   0.1654880   0.8342850   0.6667700  )
        69        Sb     tau(  69) = (   0.0778190   0.7509630   0.7508340  )
        70        As     tau(  70) = (   0.0808820   0.9155770   0.9149670  )
        71        Sb     tau(  71) = (   0.2476290   0.7539310   0.9185630  )
        72        Sb     tau(  72) = (   0.2485960   0.9191640   0.7516560  )
        73        Ga     tau(  73) = (   0.3275160  -0.0055650   0.0055330  )
        74        Ga     tau(  74) = (   0.3336230   0.1655590   0.1693620  )
        75        Ga     tau(  75) = (   0.5057280  -0.0052050   0.1627370  )
        76        Ga     tau(  76) = (   0.4994880   0.1730550  -0.0003200  )
        77        Sb     tau(  77) = (   0.4175290   0.0822470   0.0827000  )
        78        Sb     tau(  78) = (   0.4209480   0.2493610   0.2509170  )
        79        Sb     tau(  79) = (   0.5855880   0.0808850   0.2519350  )
        80        As     tau(  80) = (   0.5820190   0.2489300   0.0819150  )
        81        Ga     tau(  81) = (   0.3345530  -0.0004730   0.3321280  )
        82        Ga     tau(  82) = (   0.3330300   0.1652370   0.5014900  )
        83        Ga     tau(  83) = (   0.5075550  -0.0059480   0.4956600  )
        84        Ga     tau(  84) = (   0.5065250   0.1690420   0.3386350  )
        85        Sb     tau(  85) = (   0.4197790   0.0816190   0.4178000  )
        86        Sb     tau(  86) = (   0.4181280   0.2488920   0.5835430  )
        87        Sb     tau(  87) = (   0.5853840   0.0847330   0.5803410  )
        88        As     tau(  88) = (   0.5882420   0.2479670   0.4180160  )
        89        Ga     tau(  89) = (   0.3375520   0.0042460   0.6717680  )
        90        Ga     tau(  90) = (   0.3418080   0.1638860   0.8349310  )
        91        Ga     tau(  91) = (   0.4954390   0.0033660   0.8295890  )
        92        Ga     tau(  92) = (   0.4967200   0.1608910   0.6698700  )
        93        As     tau(  93) = (   0.4171450   0.0838990   0.7509850  )
        94        As     tau(  94) = (   0.4186890   0.2468780   0.9157820  )
        95        Sb     tau(  95) = (   0.5814280   0.0826390   0.9176930  )
        96        Sb     tau(  96) = (   0.5840760   0.2468350   0.7496330  )
        97        Ga     tau(  97) = (   0.3379370   0.3273630  -0.0066350  )
        98        Ga     tau(  98) = (   0.3334500   0.4986530   0.1651690  )
        99        Ga     tau(  99) = (   0.5055920   0.3292210   0.1623860  )
       100        Ga     tau( 100) = (   0.5021080   0.5019950  -0.0000760  )
       101        Sb     tau( 101) = (   0.4188060   0.4137900   0.0806810  )
       102        Sb     tau( 102) = (   0.4141320   0.5852370   0.2504850  )
       103        Sb     tau( 103) = (   0.5840480   0.4154530   0.2518750  )
       104        Sb     tau( 104) = (   0.5865070   0.5862000   0.0852440  )
       105        Ga     tau( 105) = (   0.3323310   0.3325900   0.3310750  )
       106        Ga     tau( 106) = (   0.3344220   0.5024950   0.4981880  )
       107        Ga     tau( 107) = (   0.5064160   0.3264750   0.4959310  )
       108        Ga     tau( 108) = (   0.4997500   0.5020860   0.3341650  )
       109        Sb     tau( 109) = (   0.4179540   0.4143250   0.4167280  )
       110        Sb     tau( 110) = (   0.4195420   0.5845160   0.5838380  )
       111        Sb     tau( 111) = (   0.5857160   0.4136810   0.5820770  )
       112        Sb     tau( 112) = (   0.5866340   0.5869770   0.4167890  )
       113        Ga     tau( 113) = (   0.3315870   0.3334730   0.6655810  )
       114        Ga     tau( 114) = (   0.3297210   0.5007360   0.8327420  )
       115        Ga     tau( 115) = (   0.4973590   0.3277220   0.8368570  )
       116        Ga     tau( 116) = (   0.5026430   0.4986390   0.6678760  )
       117        Sb     tau( 117) = (   0.4160580   0.4151300   0.7521350  )
       118        Sb     tau( 118) = (   0.4155120   0.5842810   0.9160680  )
       119        Sb     tau( 119) = (   0.5840780   0.4151950   0.9164920  )
       120        Sb     tau( 120) = (   0.5881010   0.5876670   0.7480610  )
       121        Ga     tau( 121) = (   0.3322700   0.6684790   0.0005230  )
       122        Ga     tau( 122) = (   0.3229970   0.8329830   0.1672580  )
       123        Ga     tau( 123) = (   0.5001210   0.6694110   0.1688420  )
       124        Ga     tau( 124) = (   0.5056220   0.8390250   0.0037790  )
       125        Sb     tau( 125) = (   0.4154400   0.7538970   0.0847960  )
       126        Sb     tau( 126) = (   0.4167420   0.9148260   0.2472150  )
       127        Sb     tau( 127) = (   0.5878730   0.7537650   0.2493650  )
       128        As     tau( 128) = (   0.5868070   0.9149560   0.0834530  )
       129        Ga     tau( 129) = (   0.3289740   0.6744230   0.3298080  )
       130        Ga     tau( 130) = (   0.3313340   0.8349400   0.5013850  )
       131        Ga     tau( 131) = (   0.5066970   0.6718100   0.5047380  )
       132        Ga     tau( 132) = (   0.5068510   0.8395590   0.3361190  )
       133        Sb     tau( 133) = (   0.4195660   0.7535900   0.4173770  )
       134        Sb     tau( 134) = (   0.4194500   0.9173000   0.5843460  )
       135        As     tau( 135) = (   0.5894480   0.7516130   0.5809630  )
       136        As     tau( 136) = (   0.5886540   0.9147300   0.4179730  )
       137        Ga     tau( 137) = (   0.3318060   0.6668080   0.6662670  )
       138        Ga     tau( 138) = (   0.3344560   0.8340510   0.8334410  )
       139        Ga     tau( 139) = (   0.5017940   0.6677880   0.8346050  )
       140        Ga     tau( 140) = (   0.5074340   0.8291380   0.6600660  )
       141        Sb     tau( 141) = (   0.4190930   0.7508930   0.7474500  )
       142        Sb     tau( 142) = (   0.4168050   0.9182450   0.9187800  )
       143        Sb     tau( 143) = (   0.5877320   0.7516170   0.9189550  )
       144        Sb     tau( 144) = (   0.5837910   0.9153040   0.7492980  )
       145        Ga     tau( 145) = (   0.6630240  -0.0061250   0.0019350  )
       146        Ga     tau( 146) = (   0.6615940   0.1688930   0.1617350  )
       147        Ga     tau( 147) = (   0.8335740  -0.0018340   0.1677130  )
       148        Ga     tau( 148) = (   0.8352870   0.1642000  -0.0013760  )
       149        Sb     tau( 149) = (   0.7484470   0.0817440   0.0826840  )
       150        Sb     tau( 150) = (   0.7466760   0.2477070   0.2513770  )
       151        Sb     tau( 151) = (   0.9166350   0.0820250   0.2537020  )
       152        Sb     tau( 152) = (   0.9173130   0.2512880   0.0833450  )
       153        Ga     tau( 153) = (   0.6686850  -0.0013680   0.3423970  )
       154        Ga     tau( 154) = (   0.6720510   0.1708420   0.4970370  )
       155        Ga     tau( 155) = (   0.8293280   0.0010740   0.4964560  )
       156        Ga     tau( 156) = (   0.8263900   0.1604380   0.3388050  )
       157        As     tau( 157) = (   0.7476730   0.0823810   0.4198790  )
       158        As     tau( 158) = (   0.7510280   0.2509780   0.5799870  )
       159        Sb     tau( 159) = (   0.9159540   0.0811980   0.5834190  )
       160        Sb     tau( 160) = (   0.9136070   0.2481400   0.4199540  )
       161        Ga     tau( 161) = (   0.6671500  -0.0009570   0.6646010  )
       162        Ga     tau( 162) = (   0.6687780   0.1629780   0.8335680  )
       163        Ga     tau( 163) = (   0.8379030  -0.0057080   0.8290570  )
       164        Ga     tau( 164) = (   0.8290570   0.1713380   0.6595460  )
       165        Sb     tau( 165) = (   0.7532810   0.0816750   0.7471200  )
       166        Sb     tau( 166) = (   0.7492600   0.2490830   0.9184670  )
       167        Sb     tau( 167) = (   0.9195340   0.0797350   0.9138200  )
       168        Sb     tau( 168) = (   0.9155350   0.2512740   0.7465670  )
       169        Ga     tau( 169) = (   0.6632190   0.3295880   0.0050550  )
       170        Ga     tau( 170) = (   0.6693020   0.5013710   0.1709550  )
       171        Ga     tau( 171) = (   0.8326350   0.3339060   0.1698930  )
       172        Ga     tau( 172) = (   0.8378540   0.5074770   0.0047500  )
       173        Sb     tau( 173) = (   0.7505480   0.4181070   0.0839450  )
       174        Sb     tau( 174) = (   0.7558350   0.5874450   0.2515650  )
       175        Sb     tau( 175) = (   0.9187270   0.4218980   0.2482450  )
       176        As     tau( 176) = (   0.9165720   0.5890040   0.0826410  )
       177        Ga     tau( 177) = (   0.6647760   0.3303310   0.3393810  )
       178        Ga     tau( 178) = (   0.6689310   0.5014890   0.5013150  )
       179        Ga     tau( 179) = (   0.8347550   0.3358350   0.5093810  )
       180        Ga     tau( 180) = (   0.8409560   0.5065600   0.3386470  )
       181        Sb     tau( 181) = (   0.7541290   0.4172830   0.4186240  )
       182        Sb     tau( 182) = (   0.7537850   0.5870720   0.5832470  )
       183        As     tau( 183) = (   0.9153540   0.4221170   0.5832230  )
       184        As     tau( 184) = (   0.9167910   0.5879530   0.4190980  )
       185        Ga     tau( 185) = (   0.6718380   0.3274790   0.6620380  )
       186        Ga     tau( 186) = (   0.6702490   0.5004690   0.8322850  )
       187        Ga     tau( 187) = (   0.8344310   0.3338320   0.8363490  )
       188        Ga     tau( 188) = (   0.8413450   0.5031210   0.6669020  )
       189        Sb     tau( 189) = (   0.7540490   0.4161660   0.7469310  )
       190        Sb     tau( 190) = (   0.7552580   0.5879570   0.9151440  )
       191        Sb     tau( 191) = (   0.9179830   0.4212220   0.9184330  )
       192        As     tau( 192) = (   0.9163980   0.5861390   0.7477780  )
       193        Ga     tau( 193) = (   0.6749650   0.6716300   0.0052510  )
       194        Ga     tau( 194) = (   0.6701650   0.8333790   0.1578930  )
       195        Ga     tau( 195) = (   0.8386810   0.6707140   0.1643840  )
       196        Ga     tau( 196) = (   0.8334340   0.8233600  -0.0017090  )
       197        As     tau( 197) = (   0.7552800   0.7500300   0.0842290  )
       198        Sb     tau( 198) = (   0.7493970   0.9139350   0.2515500  )
       199        As     tau( 199) = (   0.9140960   0.7462860   0.2529730  )
       200        Sb     tau( 200) = (   0.9155830   0.9110910   0.0827200  )
       201        Ga     tau( 201) = (   0.6737820   0.6731370   0.3360790  )
       202        Ga     tau( 202) = (   0.6671110   0.8288860   0.4958360  )
       203        Ga     tau( 203) = (   0.8324300   0.6692500   0.4919800  )
       204        Ga     tau( 204) = (   0.8326720   0.8245010   0.3317600  )
       205        As     tau( 205) = (   0.7514820   0.7510610   0.4161320  )
       206        Sb     tau( 206) = (   0.7509780   0.9128490   0.5826100  )
       207        Sb     tau( 207) = (   0.9166220   0.7481880   0.5826600  )
       208        Sb     tau( 208) = (   0.9157380   0.9142210   0.4143470  )
       209        Ga     tau( 209) = (   0.6723260   0.6773440   0.6648830  )
       210        Ga     tau( 210) = (   0.6730480   0.8288880   0.8281930  )
       211        Ga     tau( 211) = (   0.8383570   0.6718090   0.8264530  )
       212        Ga     tau( 212) = (   0.8371210   0.8335360   0.6731040  )
       213        As     tau( 213) = (   0.7550560   0.7520110   0.7481900  )
       214        Sb     tau( 214) = (   0.7517270   0.9130810   0.9160910  )
       215        As     tau( 215) = (   0.9148420   0.7495790   0.9142130  )
       216        As     tau( 216) = (   0.9178020   0.9132970   0.7537460  )

     number of k points=     8
                       cart. coord. in units 2pi/alat
        k(    1) = (   0.0000000   0.0000000   0.0000000), wk =   0.2500000
        k(    2) = (   0.0000000   0.0000000  -0.5000000), wk =   0.2500000
        k(    3) = (   0.0000000  -0.5000000  -0.5000000), wk =   0.2500000
        k(    4) = (  -0.5000000  -0.5000000  -0.5000000), wk =   0.2500000
        k(    5) = (  -0.5000000   0.0000000   0.0000000), wk =   0.2500000
        k(    6) = (   0.0000000  -0.5000000   0.0000000), wk =   0.2500000
        k(    7) = (  -0.5000000   0.0000000   0.5000000), wk =   0.2500000
        k(    8) = (  -0.5000000   0.5000000   0.0000000), wk =   0.2500000

     Dense  grid:  7004513 G-vectors     FFT dimensions: ( 240, 240, 240)

     Estimated max dynamical RAM per process >       2.70 GB

     Estimated total dynamical RAM >    1717.08 GB

     Initial potential from superposition of free atoms

     starting charge    3023.6593, renormalised to    3024.0000

     STARTING HUBBARD OCCUPATIONS:

     =================== HUBBARD OCCUPATIONS ===================
     ------------------------ ATOM    1 ------------------------
     Tr[ns(  1)] =   1.00000
     eigenvalues:
       0.167  0.167  0.167
     eigenvectors (columns):
       1.000  0.000  0.000
       0.000  1.000  0.000
       0.000  0.000  1.000
     occupation matrix ns (before diag.):
       0.167  0.000  0.000
       0.000  0.167  0.000
       0.000  0.000  0.167
     ------------------------ ATOM    2 ------------------------
     Tr[ns(  2)] =   1.00000
     eigenvalues:
       0.167  0.167  0.167
     eigenvectors (columns):
       1.000  0.000  0.000
       0.000  1.000  0.000
       0.000  0.000  1.000
     occupation matrix ns (before diag.):
       0.167  0.000  0.000
       0.000  0.167  0.000
       0.000  0.000  0.167
     ------------------------ ATOM    3 ------------------------
     Tr[ns(  3)] =   1.00000
     eigenvalues:
       0.167  0.167  0.167
     eigenvectors (columns):
       1.000  0.000  0.000
       0.000  1.000  0.000
       0.000  0.000  1.000
     occupation matrix ns (before diag.):
       0.167  0.000  0.000
       0.000  0.167  0.000
       0.000  0.000  0.167
     ------------------------ ATOM    4 ------------------------
     Tr[ns(  4)] =   1.00000
     eigenvalues:
       0.167  0.167  0.167
     eigenvectors (columns):
       1.000  0.000  0.000
       0.000  1.000  0.000
       0.000  0.000  1.000
     occupation matrix ns (before diag.):
       0.167  0.000  0.000
       0.000  0.167  0.000
       0.000  0.000  0.167
     ------------------------ ATOM    5 ------------------------
     Tr[ns(  5)] =   3.00000
     eigenvalues:
       0.500  0.500  0.500
     eigenvectors (columns):
       1.000  0.000  0.000
       0.000  1.000  0.000
       0.000  0.000  1.000
     occupation matrix ns (before diag.):
       0.500  0.000  0.000
       0.000  0.500  0.000
       0.000  0.000  0.500
     ------------------------ ATOM    6 ------------------------
     Tr[ns(  6)] =   3.00000
     eigenvalues:
       0.500  0.500  0.500
     eigenvectors (columns):
       1.000  0.000  0.000
       0.000  1.000  0.000
       0.000  0.000  1.000
     occupation matrix ns (before diag.):
       0.500  0.000  0.000
       0.000  0.500  0.000
       0.000  0.000  0.500
     ------------------------ ATOM    7 ------------------------
     Tr[ns(  7)] =   3.00000
     eigenvalues:
       0.500  0.500  0.500
     eigenvectors (columns):
       1.000  0.000  0.000
       0.000  1.000  0.000
       0.000  0.000  1.000
     occupation matrix ns (before diag.):
       0.500  0.000  0.000
       0.000  0.500  0.000
       0.000  0.000  0.500
     ------------------------ ATOM    8 ------------------------
     Tr[ns(  8)] =   3.00000
     eigenvalues:
       0.500  0.500  0.500
     eigenvectors (columns):
       1.000  0.000  0.000
       0.000  1.000  0.000
       0.000  0.000  1.000
     occupation matrix ns (before diag.):
       0.500  0.000  0.000
       0.000  0.500  0.000
       0.000  0.000  0.500
     ------------------------ ATOM    9 ------------------------
     Tr[ns(  9)] =   1.00000
     eigenvalues:
       0.167  0.167  0.167
     eigenvectors (columns):
       1.000  0.000  0.000
       0.000  1.000  0.000
       0.000  0.000  1.000
     occupation matrix ns (before diag.):
       0.167  0.000  0.000
       0.000  0.167  0.000
       0.000  0.000  0.167
     ------------------------ ATOM   10 ------------------------
     Tr[ns( 10)] =   1.00000
     eigenvalues:
       0.167  0.167  0.167
     eigenvectors (columns):
       1.000  0.000  0.000
       0.000  1.000  0.000
       0.000  0.000  1.000
     occupation matrix ns (before diag.):
       0.167  0.000  0.000
       0.000  0.167  0.000
       0.000  0.000  0.167
     ------------------------ ATOM   11 ------------------------
     Tr[ns( 11)] =   1.00000
     eigenvalues:
       0.167  0.167  0.167
     eigenvectors (columns):
       1.000  0.000  0.000
       0.000  1.000  0.000
       0.000  0.000  1.000
     occupation matrix ns (before diag.):
       0.167  0.000  0.000
       0.000  0.167  0.000
       0.000  0.000  0.167
     ------------------------ ATOM   12 ------------------------
     Tr[ns( 12)] =   1.00000
     eigenvalues:
       0.167  0.167  0.167
     eigenvectors (columns):
       1.000  0.000  0.000
       0.000  1.000  0.000
       0.000  0.000  1.000
     occupation matrix ns (before diag.):
       0.167  0.000  0.000
       0.000  0.167  0.000
       0.000  0.000  0.167
     ------------------------ ATOM   13 ------------------------
     Tr[ns( 13)] =   3.00000
     eigenvalues:
       0.500  0.500  0.500
     eigenvectors (columns):
       1.000  0.000  0.000
       0.000  1.000  0.000
       0.000  0.000  1.000
     occupation matrix ns (before diag.):
       0.500  0.000  0.000
       0.000  0.500  0.000
       0.000  0.000  0.500
     ------------------------ ATOM   14 ------------------------
     Tr[ns( 14)] =   3.00000
     eigenvalues:
       0.500  0.500  0.500
     eigenvectors (columns):
       1.000  0.000  0.000
       0.000  1.000  0.000
       0.000  0.000  1.000
     occupation matrix ns (before diag.):
       0.500  0.000  0.000
       0.000  0.500  0.000
       0.000  0.000  0.500
     ------------------------ ATOM   15 ------------------------
     Tr[ns( 15)] =   3.00000
     eigenvalues:
       0.500  0.500  0.500
     eigenvectors (columns):
       1.000  0.000  0.000
       0.000  1.000  0.000
       0.000  0.000  1.000
     occupation matrix ns (before diag.):
       0.500  0.000  0.000
       0.000  0.500  0.000
       0.000  0.000  0.500
     ------------------------ ATOM   16 ------------------------
     Tr[ns( 16)] =   3.00000
     eigenvalues:
       0.500  0.500  0.500
     eigenvectors (columns):
       1.000  0.000  0.000
       0.000  1.000  0.000
       0.000  0.000  1.000
     occupation matrix ns (before diag.):
       0.500  0.000  0.000
       0.000  0.500  0.000
       0.000  0.000  0.500
     ------------------------ ATOM   17 ------------------------
     Tr[ns( 17)] =   1.00000
     eigenvalues:
       0.167  0.167  0.167
     eigenvectors (columns):
       1.000  0.000  0.000
       0.000  1.000  0.000
       0.000  0.000  1.000
     occupation matrix ns (before diag.):
       0.167  0.000  0.000
       0.000  0.167  0.000
       0.000  0.000  0.167
     ------------------------ ATOM   18 ------------------------
     Tr[ns( 18)] =   1.00000
     eigenvalues:
       0.167  0.167  0.167
     eigenvectors (columns):
       1.000  0.000  0.000
       0.000  1.000  0.000
       0.000  0.000  1.000
     occupation matrix ns (before diag.):
       0.167  0.000  0.000
       0.000  0.167  0.000
       0.000  0.000  0.167
     ------------------------ ATOM   19 ------------------------
     Tr[ns( 19)] =   1.00000
     eigenvalues:
       0.167  0.167  0.167
     eigenvectors (columns):
       1.000  0.000  0.000
       0.000  1.000  0.000
       0.000  0.000  1.000
     occupation matrix ns (before diag.):
       0.167  0.000  0.000
       0.000  0.167  0.000
       0.000  0.000  0.167
     ------------------------ ATOM   20 ------------------------
     Tr[ns( 20)] =   1.00000
     eigenvalues:
       0.167  0.167  0.167
     eigenvectors (columns):
       1.000  0.000  0.000
       0.000  1.000  0.000
       0.000  0.000  1.000
     occupation matrix ns (before diag.):
       0.167  0.000  0.000
       0.000  0.167  0.000
       0.000  0.000  0.167
     ------------------------ ATOM   21 ------------------------
     Tr[ns( 21)] =   3.00000
     eigenvalues:
       0.500  0.500  0.500
     eigenvectors (columns):
       1.000  0.000  0.000
       0.000  1.000  0.000
       0.000  0.000  1.000
     occupation matrix ns (before diag.):
       0.500  0.000  0.000
       0.000  0.500  0.000
       0.000  0.000  0.500
     ------------------------ ATOM   22 ------------------------
     Tr[ns( 22)] =   3.00000
     eigenvalues:
       0.500  0.500  0.500
     eigenvectors (columns):
       1.000  0.000  0.000
       0.000  1.000  0.000
       0.000  0.000  1.000
     occupation matrix ns (before diag.):
       0.500  0.000  0.000
       0.000  0.500  0.000
       0.000  0.000  0.500
     ------------------------ ATOM   23 ------------------------
     Tr[ns( 23)] =   3.00000
     eigenvalues:
       0.500  0.500  0.500
     eigenvectors (columns):
       1.000  0.000  0.000
       0.000  1.000  0.000
       0.000  0.000  1.000
     occupation matrix ns (before diag.):
       0.500  0.000  0.000
       0.000  0.500  0.000
       0.000  0.000  0.500
     ------------------------ ATOM   24 ------------------------
     Tr[ns( 24)] =   3.00000
     eigenvalues:
       0.500  0.500  0.500
     eigenvectors (columns):
       1.000  0.000  0.000
       0.000  1.000  0.000
       0.000  0.000  1.000
     occupation matrix ns (before diag.):
       0.500  0.000  0.000
       0.000  0.500  0.000
       0.000  0.000  0.500
     ------------------------ ATOM   25 ------------------------
     Tr[ns( 25)] =   1.00000
     eigenvalues:
       0.167  0.167  0.167
     eigenvectors (columns):
       1.000  0.000  0.000
       0.000  1.000  0.000
       0.000  0.000  1.000
     occupation matrix ns (before diag.):
       0.167  0.000  0.000
       0.000  0.167  0.000
       0.000  0.000  0.167
     ------------------------ ATOM   26 ------------------------
     Tr[ns( 26)] =   1.00000
     eigenvalues:
       0.167  0.167  0.167
     eigenvectors (columns):
       1.000  0.000  0.000
       0.000  1.000  0.000
       0.000  0.000  1.000
     occupation matrix ns (before diag.):
       0.167  0.000  0.000
       0.000  0.167  0.000
       0.000  0.000  0.167
     ------------------------ ATOM   27 ------------------------
     Tr[ns( 27)] =   1.00000
     eigenvalues:
       0.167  0.167  0.167
     eigenvectors (columns):
       1.000  0.000  0.000
       0.000  1.000  0.000
       0.000  0.000  1.000
     occupation matrix ns (before diag.):
       0.167  0.000  0.000
       0.000  0.167  0.000
       0.000  0.000  0.167
     ------------------------ ATOM   28 ------------------------
     Tr[ns( 28)] =   1.00000
     eigenvalues:
       0.167  0.167  0.167
     eigenvectors (columns):
       1.000  0.000  0.000
       0.000  1.000  0.000
       0.000  0.000  1.000
     occupation matrix ns (before diag.):
       0.167  0.000  0.000
       0.000  0.167  0.000
       0.000  0.000  0.167
     ------------------------ ATOM   29 ------------------------
     Tr[ns( 29)] =   3.00000
     eigenvalues:
       0.500  0.500  0.500
     eigenvectors (columns):
       1.000  0.000  0.000
       0.000  1.000  0.000
       0.000  0.000  1.000
     occupation matrix ns (before diag.):
       0.500  0.000  0.000
       0.000  0.500  0.000
       0.000  0.000  0.500
     ------------------------ ATOM   30 ------------------------
     Tr[ns( 30)] =   3.00000
     eigenvalues:
       0.500  0.500  0.500
     eigenvectors (columns):
       1.000  0.000  0.000
       0.000  1.000  0.000
       0.000  0.000  1.000
     occupation matrix ns (before diag.):
       0.500  0.000  0.000
       0.000  0.500  0.000
       0.000  0.000  0.500
     ------------------------ ATOM   31 ------------------------
     Tr[ns( 31)] =   3.00000
     eigenvalues:
       0.500  0.500  0.500
     eigenvectors (columns):
       1.000  0.000  0.000
       0.000  1.000  0.000
       0.000  0.000  1.000
     occupation matrix ns (before diag.):
       0.500  0.000  0.000
       0.000  0.500  0.000
       0.000  0.000  0.500
     ------------------------ ATOM   32 ------------------------
     Tr[ns( 32)] =   3.00000
     eigenvalues:
       0.500  0.500  0.500
     eigenvectors (columns):
       1.000  0.000  0.000
       0.000  1.000  0.000
       0.000  0.000  1.000
     occupation matrix ns (before diag.):
       0.500  0.000  0.000
       0.000  0.500  0.000
       0.000  0.000  0.500
     ------------------------ ATOM   33 ------------------------
     Tr[ns( 33)] =   1.00000
     eigenvalues:
       0.167  0.167  0.167
     eigenvectors (columns):
       1.000  0.000  0.000
       0.000  1.000  0.000
       0.000  0.000  1.000
     occupation matrix ns (before diag.):
       0.167  0.000  0.000
       0.000  0.167  0.000
       0.000  0.000  0.167
     ------------------------ ATOM   34 ------------------------
     Tr[ns( 34)] =   1.00000
     eigenvalues:
       0.167  0.167  0.167
     eigenvectors (columns):
       1.000  0.000  0.000
       0.000  1.000  0.000
       0.000  0.000  1.000
     occupation matrix ns (before diag.):
       0.167  0.000  0.000
       0.000  0.167  0.000
       0.000  0.000  0.167
     ------------------------ ATOM   35 ------------------------
     Tr[ns( 35)] =   1.00000
     eigenvalues:
       0.167  0.167  0.167
     eigenvectors (columns):
       1.000  0.000  0.000
       0.000  1.000  0.000
       0.000  0.000  1.000
     occupation matrix ns (before diag.):
       0.167  0.000  0.000
       0.000  0.167  0.000
       0.000  0.000  0.167
     ------------------------ ATOM   36 ------------------------
     Tr[ns( 36)] =   1.00000
     eigenvalues:
       0.167  0.167  0.167
     eigenvectors (columns):
       1.000  0.000  0.000
       0.000  1.000  0.000
       0.000  0.000  1.000
     occupation matrix ns (before diag.):
       0.167  0.000  0.000
       0.000  0.167  0.000
       0.000  0.000  0.167
     ------------------------ ATOM   37 ------------------------
     Tr[ns( 37)] =   3.00000
     eigenvalues:
       0.500  0.500  0.500
     eigenvectors (columns):
       1.000  0.000  0.000
       0.000  1.000  0.000
       0.000  0.000  1.000
     occupation matrix ns (before diag.):
       0.500  0.000  0.000
       0.000  0.500  0.000
       0.000  0.000  0.500
     ------------------------ ATOM   38 ------------------------
     Tr[ns( 38)] =   3.00000
     eigenvalues:
       0.500  0.500  0.500
     eigenvectors (columns):
       1.000  0.000  0.000
       0.000  1.000  0.000
       0.000  0.000  1.000
     occupation matrix ns (before diag.):
       0.500  0.000  0.000
       0.000  0.500  0.000
       0.000  0.000  0.500
     ------------------------ ATOM   39 ------------------------
     Tr[ns( 39)] =   3.00000
     eigenvalues:
       0.500  0.500  0.500
     eigenvectors (columns):
       1.000  0.000  0.000
       0.000  1.000  0.000
       0.000  0.000  1.000
     occupation matrix ns (before diag.):
       0.500  0.000  0.000
       0.000  0.500  0.000
       0.000  0.000  0.500
     ------------------------ ATOM   40 ------------------------
     Tr[ns( 40)] =   3.00000
     eigenvalues:
       0.500  0.500  0.500
     eigenvectors (columns):
       1.000  0.000  0.000
       0.000  1.000  0.000
       0.000  0.000  1.000
     occupation matrix ns (before diag.):
       0.500  0.000  0.000
       0.000  0.500  0.000
       0.000  0.000  0.500
     ------------------------ ATOM   41 ------------------------
     Tr[ns( 41)] =   1.00000
     eigenvalues:
       0.167  0.167  0.167
     eigenvectors (columns):
       1.000  0.000  0.000
       0.000  1.000  0.000
       0.000  0.000  1.000
     occupation matrix ns (before diag.):
       0.167  0.000  0.000
       0.000  0.167  0.000
       0.000  0.000  0.167
     ------------------------ ATOM   42 ------------------------
     Tr[ns( 42)] =   1.00000
     eigenvalues:
       0.167  0.167  0.167
     eigenvectors (columns):
       1.000  0.000  0.000
       0.000  1.000  0.000
       0.000  0.000  1.000
     occupation matrix ns (before diag.):
       0.167  0.000  0.000
       0.000  0.167  0.000
       0.000  0.000  0.167
     ------------------------ ATOM   43 ------------------------
     Tr[ns( 43)] =   1.00000
     eigenvalues:
       0.167  0.167  0.167
     eigenvectors (columns):
       1.000  0.000  0.000
       0.000  1.000  0.000
       0.000  0.000  1.000
     occupation matrix ns (before diag.):
       0.167  0.000  0.000
       0.000  0.167  0.000
       0.000  0.000  0.167
     ------------------------ ATOM   44 ------------------------
     Tr[ns( 44)] =   1.00000
     eigenvalues:
       0.167  0.167  0.167
     eigenvectors (columns):
       1.000  0.000  0.000
       0.000  1.000  0.000
       0.000  0.000  1.000
     occupation matrix ns (before diag.):
       0.167  0.000  0.000
       0.000  0.167  0.000
       0.000  0.000  0.167
     ------------------------ ATOM   45 ------------------------
     Tr[ns( 45)] =   3.00000
     eigenvalues:
       0.500  0.500  0.500
     eigenvectors (columns):
       1.000  0.000  0.000
       0.000  1.000  0.000
       0.000  0.000  1.000
     occupation matrix ns (before diag.):
       0.500  0.000  0.000
       0.000  0.500  0.000
       0.000  0.000  0.500
     ------------------------ ATOM   46 ------------------------
     Tr[ns( 46)] =   3.00000
     eigenvalues:
       0.500  0.500  0.500
     eigenvectors (columns):
       1.000  0.000  0.000
       0.000  1.000  0.000
       0.000  0.000  1.000
     occupation matrix ns (before diag.):
       0.500  0.000  0.000
       0.000  0.500  0.000
       0.000  0.000  0.500
     ------------------------ ATOM   47 ------------------------
     Tr[ns( 47)] =   3.00000
     eigenvalues:
       0.500  0.500  0.500
     eigenvectors (columns):
       1.000  0.000  0.000
       0.000  1.000  0.000
       0.000  0.000  1.000
     occupation matrix ns (before diag.):
       0.500  0.000  0.000
       0.000  0.500  0.000
       0.000  0.000  0.500
     ------------------------ ATOM   48 ------------------------
     Tr[ns( 48)] =   3.00000
     eigenvalues:
       0.500  0.500  0.500
     eigenvectors (columns):
       1.000  0.000  0.000
       0.000  1.000  0.000
       0.000  0.000  1.000
     occupation matrix ns (before diag.):
       0.500  0.000  0.000
       0.000  0.500  0.000
       0.000  0.000  0.500
     ------------------------ ATOM   49 ------------------------
     Tr[ns( 49)] =   1.00000
     eigenvalues:
       0.167  0.167  0.167
     eigenvectors (columns):
       1.000  0.000  0.000
       0.000  1.000  0.000
       0.000  0.000  1.000
     occupation matrix ns (before diag.):
       0.167  0.000  0.000
       0.000  0.167  0.000
       0.000  0.000  0.167
     ------------------------ ATOM   50 ------------------------
     Tr[ns( 50)] =   1.00000
     eigenvalues:
       0.167  0.167  0.167
     eigenvectors (columns):
       1.000  0.000  0.000
       0.000  1.000  0.000
       0.000  0.000  1.000
     occupation matrix ns (before diag.):
       0.167  0.000  0.000
       0.000  0.167  0.000
       0.000  0.000  0.167
     ------------------------ ATOM   51 ------------------------
     Tr[ns( 51)] =   1.00000
     eigenvalues:
       0.167  0.167  0.167
     eigenvectors (columns):
       1.000  0.000  0.000
       0.000  1.000  0.000
       0.000  0.000  1.000
     occupation matrix ns (before diag.):
       0.167  0.000  0.000
       0.000  0.167  0.000
       0.000  0.000  0.167
     ------------------------ ATOM   52 ------------------------
     Tr[ns( 52)] =   1.00000
     eigenvalues:
       0.167  0.167  0.167
     eigenvectors (columns):
       1.000  0.000  0.000
       0.000  1.000  0.000
       0.000  0.000  1.000
     occupation matrix ns (before diag.):
       0.167  0.000  0.000
       0.000  0.167  0.000
       0.000  0.000  0.167
     ------------------------ ATOM   53 ------------------------
     Tr[ns( 53)] =   3.00000
     eigenvalues:
       0.500  0.500  0.500
     eigenvectors (columns):
       1.000  0.000  0.000
       0.000  1.000  0.000
       0.000  0.000  1.000
     occupation matrix ns (before diag.):
       0.500  0.000  0.000
       0.000  0.500  0.000
       0.000  0.000  0.500
     ------------------------ ATOM   54 ------------------------
     Tr[ns( 54)] =   3.00000
     eigenvalues:
       0.500  0.500  0.500
     eigenvectors (columns):
       1.000  0.000  0.000
       0.000  1.000  0.000
       0.000  0.000  1.000
     occupation matrix ns (before diag.):
       0.500  0.000  0.000
       0.000  0.500  0.000
       0.000  0.000  0.500
     ------------------------ ATOM   55 ------------------------
     Tr[ns( 55)] =   3.00000
     eigenvalues:
       0.500  0.500  0.500
     eigenvectors (columns):
       1.000  0.000  0.000
       0.000  1.000  0.000
       0.000  0.000  1.000
     occupation matrix ns (before diag.):
       0.500  0.000  0.000
       0.000  0.500  0.000
       0.000  0.000  0.500
     ------------------------ ATOM   56 ------------------------
     Tr[ns( 56)] =   3.00000
     eigenvalues:
       0.500  0.500  0.500
     eigenvectors (columns):
       1.000  0.000  0.000
       0.000  1.000  0.000
       0.000  0.000  1.000
     occupation matrix ns (before diag.):
       0.500  0.000  0.000
       0.000  0.500  0.000
       0.000  0.000  0.500
     ------------------------ ATOM   57 ------------------------
     Tr[ns( 57)] =   1.00000
     eigenvalues:
       0.167  0.167  0.167
     eigenvectors (columns):
       1.000  0.000  0.000
       0.000  1.000  0.000
       0.000  0.000  1.000
     occupation matrix ns (before diag.):
       0.167  0.000  0.000
       0.000  0.167  0.000
       0.000  0.000  0.167
     ------------------------ ATOM   58 ------------------------
     Tr[ns( 58)] =   1.00000
     eigenvalues:
       0.167  0.167  0.167
     eigenvectors (columns):
       1.000  0.000  0.000
       0.000  1.000  0.000
       0.000  0.000  1.000
     occupation matrix ns (before diag.):
       0.167  0.000  0.000
       0.000  0.167  0.000
       0.000  0.000  0.167
     ------------------------ ATOM   59 ------------------------
     Tr[ns( 59)] =   1.00000
     eigenvalues:
       0.167  0.167  0.167
     eigenvectors (columns):
       1.000  0.000  0.000
       0.000  1.000  0.000
       0.000  0.000  1.000
     occupation matrix ns (before diag.):
       0.167  0.000  0.000
       0.000  0.167  0.000
       0.000  0.000  0.167
     ------------------------ ATOM   60 ------------------------
     Tr[ns( 60)] =   1.00000
     eigenvalues:
       0.167  0.167  0.167
     eigenvectors (columns):
       1.000  0.000  0.000
       0.000  1.000  0.000
       0.000  0.000  1.000
     occupation matrix ns (before diag.):
       0.167  0.000  0.000
       0.000  0.167  0.000
       0.000  0.000  0.167
     ------------------------ ATOM   61 ------------------------
     Tr[ns( 61)] =   3.00000
     eigenvalues:
       0.500  0.500  0.500
     eigenvectors (columns):
       1.000  0.000  0.000
       0.000  1.000  0.000
       0.000  0.000  1.000
     occupation matrix ns (before diag.):
       0.500  0.000  0.000
       0.000  0.500  0.000
       0.000  0.000  0.500
     ------------------------ ATOM   62 ------------------------
     Tr[ns( 62)] =   3.00000
     eigenvalues:
       0.500  0.500  0.500
     eigenvectors (columns):
       1.000  0.000  0.000
       0.000  1.000  0.000
       0.000  0.000  1.000
     occupation matrix ns (before diag.):
       0.500  0.000  0.000
       0.000  0.500  0.000
       0.000  0.000  0.500
     ------------------------ ATOM   63 ------------------------
     Tr[ns( 63)] =   3.00000
     eigenvalues:
       0.500  0.500  0.500
     eigenvectors (columns):
       1.000  0.000  0.000
       0.000  1.000  0.000
       0.000  0.000  1.000
     occupation matrix ns (before diag.):
       0.500  0.000  0.000
       0.000  0.500  0.000
       0.000  0.000  0.500
     ------------------------ ATOM   64 ------------------------
     Tr[ns( 64)] =   3.00000
     eigenvalues:
       0.500  0.500  0.500
     eigenvectors (columns):
       1.000  0.000  0.000
       0.000  1.000  0.000
       0.000  0.000  1.000
     occupation matrix ns (before diag.):
       0.500  0.000  0.000
       0.000  0.500  0.000
       0.000  0.000  0.500
     ------------------------ ATOM   65 ------------------------
     Tr[ns( 65)] =   1.00000
     eigenvalues:
       0.167  0.167  0.167
     eigenvectors (columns):
       1.000  0.000  0.000
       0.000  1.000  0.000
       0.000  0.000  1.000
     occupation matrix ns (before diag.):
       0.167  0.000  0.000
       0.000  0.167  0.000
       0.000  0.000  0.167
     ------------------------ ATOM   66 ------------------------
     Tr[ns( 66)] =   1.00000
     eigenvalues:
       0.167  0.167  0.167
     eigenvectors (columns):
       1.000  0.000  0.000
       0.000  1.000  0.000
       0.000  0.000  1.000
     occupation matrix ns (before diag.):
       0.167  0.000  0.000
       0.000  0.167  0.000
       0.000  0.000  0.167
     ------------------------ ATOM   67 ------------------------
     Tr[ns( 67)] =   1.00000
     eigenvalues:
       0.167  0.167  0.167
     eigenvectors (columns):
       1.000  0.000  0.000
       0.000  1.000  0.000
       0.000  0.000  1.000
     occupation matrix ns (before diag.):
       0.167  0.000  0.000
       0.000  0.167  0.000
       0.000  0.000  0.167
     ------------------------ ATOM   68 ------------------------
     Tr[ns( 68)] =   1.00000
     eigenvalues:
       0.167  0.167  0.167
     eigenvectors (columns):
       1.000  0.000  0.000
       0.000  1.000  0.000
       0.000  0.000  1.000
     occupation matrix ns (before diag.):
       0.167  0.000  0.000
       0.000  0.167  0.000
       0.000  0.000  0.167
     ------------------------ ATOM   69 ------------------------
     Tr[ns( 69)] =   3.00000
     eigenvalues:
       0.500  0.500  0.500
     eigenvectors (columns):
       1.000  0.000  0.000
       0.000  1.000  0.000
       0.000  0.000  1.000
     occupation matrix ns (before diag.):
       0.500  0.000  0.000
       0.000  0.500  0.000
       0.000  0.000  0.500
     ------------------------ ATOM   70 ------------------------
     Tr[ns( 70)] =   3.00000
     eigenvalues:
       0.500  0.500  0.500
     eigenvectors (columns):
       1.000  0.000  0.000
       0.000  1.000  0.000
       0.000  0.000  1.000
     occupation matrix ns (before diag.):
       0.500  0.000  0.000
       0.000  0.500  0.000
       0.000  0.000  0.500
     ------------------------ ATOM   71 ------------------------
     Tr[ns( 71)] =   3.00000
     eigenvalues:
       0.500  0.500  0.500
     eigenvectors (columns):
       1.000  0.000  0.000
       0.000  1.000  0.000
       0.000  0.000  1.000
     occupation matrix ns (before diag.):
       0.500  0.000  0.000
       0.000  0.500  0.000
       0.000  0.000  0.500
     ------------------------ ATOM   72 ------------------------
     Tr[ns( 72)] =   3.00000
     eigenvalues:
       0.500  0.500  0.500
     eigenvectors (columns):
       1.000  0.000  0.000
       0.000  1.000  0.000
       0.000  0.000  1.000
     occupation matrix ns (before diag.):
       0.500  0.000  0.000
       0.000  0.500  0.000
       0.000  0.000  0.500
     ------------------------ ATOM   73 ------------------------
     Tr[ns( 73)] =   1.00000
     eigenvalues:
       0.167  0.167  0.167
     eigenvectors (columns):
       1.000  0.000  0.000
       0.000  1.000  0.000
       0.000  0.000  1.000
     occupation matrix ns (before diag.):
       0.167  0.000  0.000
       0.000  0.167  0.000
       0.000  0.000  0.167
     ------------------------ ATOM   74 ------------------------
     Tr[ns( 74)] =   1.00000
     eigenvalues:
       0.167  0.167  0.167
     eigenvectors (columns):
       1.000  0.000  0.000
       0.000  1.000  0.000
       0.000  0.000  1.000
     occupation matrix ns (before diag.):
       0.167  0.000  0.000
       0.000  0.167  0.000
       0.000  0.000  0.167
     ------------------------ ATOM   75 ------------------------
     Tr[ns( 75)] =   1.00000
     eigenvalues:
       0.167  0.167  0.167
     eigenvectors (columns):
       1.000  0.000  0.000
       0.000  1.000  0.000
       0.000  0.000  1.000
     occupation matrix ns (before diag.):
       0.167  0.000  0.000
       0.000  0.167  0.000
       0.000  0.000  0.167
     ------------------------ ATOM   76 ------------------------
     Tr[ns( 76)] =   1.00000
     eigenvalues:
       0.167  0.167  0.167
     eigenvectors (columns):
       1.000  0.000  0.000
       0.000  1.000  0.000
       0.000  0.000  1.000
     occupation matrix ns (before diag.):
       0.167  0.000  0.000
       0.000  0.167  0.000
       0.000  0.000  0.167
     ------------------------ ATOM   77 ------------------------
     Tr[ns( 77)] =   3.00000
     eigenvalues:
       0.500  0.500  0.500
     eigenvectors (columns):
       1.000  0.000  0.000
       0.000  1.000  0.000
       0.000  0.000  1.000
     occupation matrix ns (before diag.):
       0.500  0.000  0.000
       0.000  0.500  0.000
       0.000  0.000  0.500
     ------------------------ ATOM   78 ------------------------
     Tr[ns( 78)] =   3.00000
     eigenvalues:
       0.500  0.500  0.500
     eigenvectors (columns):
       1.000  0.000  0.000
       0.000  1.000  0.000
       0.000  0.000  1.000
     occupation matrix ns (before diag.):
       0.500  0.000  0.000
       0.000  0.500  0.000
       0.000  0.000  0.500
     ------------------------ ATOM   79 ------------------------
     Tr[ns( 79)] =   3.00000
     eigenvalues:
       0.500  0.500  0.500
     eigenvectors (columns):
       1.000  0.000  0.000
       0.000  1.000  0.000
       0.000  0.000  1.000
     occupation matrix ns (before diag.):
       0.500  0.000  0.000
       0.000  0.500  0.000
       0.000  0.000  0.500
     ------------------------ ATOM   80 ------------------------
     Tr[ns( 80)] =   3.00000
     eigenvalues:
       0.500  0.500  0.500
     eigenvectors (columns):
       1.000  0.000  0.000
       0.000  1.000  0.000
       0.000  0.000  1.000
     occupation matrix ns (before diag.):
       0.500  0.000  0.000
       0.000  0.500  0.000
       0.000  0.000  0.500
     ------------------------ ATOM   81 ------------------------
     Tr[ns( 81)] =   1.00000
     eigenvalues:
       0.167  0.167  0.167
     eigenvectors (columns):
       1.000  0.000  0.000
       0.000  1.000  0.000
       0.000  0.000  1.000
     occupation matrix ns (before diag.):
       0.167  0.000  0.000
       0.000  0.167  0.000
       0.000  0.000  0.167
     ------------------------ ATOM   82 ------------------------
     Tr[ns( 82)] =   1.00000
     eigenvalues:
       0.167  0.167  0.167
     eigenvectors (columns):
       1.000  0.000  0.000
       0.000  1.000  0.000
       0.000  0.000  1.000
     occupation matrix ns (before diag.):
       0.167  0.000  0.000
       0.000  0.167  0.000
       0.000  0.000  0.167
     ------------------------ ATOM   83 ------------------------
     Tr[ns( 83)] =   1.00000
     eigenvalues:
       0.167  0.167  0.167
     eigenvectors (columns):
       1.000  0.000  0.000
       0.000  1.000  0.000
       0.000  0.000  1.000
     occupation matrix ns (before diag.):
       0.167  0.000  0.000
       0.000  0.167  0.000
       0.000  0.000  0.167
     ------------------------ ATOM   84 ------------------------
     Tr[ns( 84)] =   1.00000
     eigenvalues:
       0.167  0.167  0.167
     eigenvectors (columns):
       1.000  0.000  0.000
       0.000  1.000  0.000
       0.000  0.000  1.000
     occupation matrix ns (before diag.):
       0.167  0.000  0.000
       0.000  0.167  0.000
       0.000  0.000  0.167
     ------------------------ ATOM   85 ------------------------
     Tr[ns( 85)] =   3.00000
     eigenvalues:
       0.500  0.500  0.500
     eigenvectors (columns):
       1.000  0.000  0.000
       0.000  1.000  0.000
       0.000  0.000  1.000
     occupation matrix ns (before diag.):
       0.500  0.000  0.000
       0.000  0.500  0.000
       0.000  0.000  0.500
     ------------------------ ATOM   86 ------------------------
     Tr[ns( 86)] =   3.00000
     eigenvalues:
       0.500  0.500  0.500
     eigenvectors (columns):
       1.000  0.000  0.000
       0.000  1.000  0.000
       0.000  0.000  1.000
     occupation matrix ns (before diag.):
       0.500  0.000  0.000
       0.000  0.500  0.000
       0.000  0.000  0.500
     ------------------------ ATOM   87 ------------------------
     Tr[ns( 87)] =   3.00000
     eigenvalues:
       0.500  0.500  0.500
     eigenvectors (columns):
       1.000  0.000  0.000
       0.000  1.000  0.000
       0.000  0.000  1.000
     occupation matrix ns (before diag.):
       0.500  0.000  0.000
       0.000  0.500  0.000
       0.000  0.000  0.500
     ------------------------ ATOM   88 ------------------------
     Tr[ns( 88)] =   3.00000
     eigenvalues:
       0.500  0.500  0.500
     eigenvectors (columns):
       1.000  0.000  0.000
       0.000  1.000  0.000
       0.000  0.000  1.000
     occupation matrix ns (before diag.):
       0.500  0.000  0.000
       0.000  0.500  0.000
       0.000  0.000  0.500
     ------------------------ ATOM   89 ------------------------
     Tr[ns( 89)] =   1.00000
     eigenvalues:
       0.167  0.167  0.167
     eigenvectors (columns):
       1.000  0.000  0.000
       0.000  1.000  0.000
       0.000  0.000  1.000
     occupation matrix ns (before diag.):
       0.167  0.000  0.000
       0.000  0.167  0.000
       0.000  0.000  0.167
     ------------------------ ATOM   90 ------------------------
     Tr[ns( 90)] =   1.00000
     eigenvalues:
       0.167  0.167  0.167
     eigenvectors (columns):
       1.000  0.000  0.000
       0.000  1.000  0.000
       0.000  0.000  1.000
     occupation matrix ns (before diag.):
       0.167  0.000  0.000
       0.000  0.167  0.000
       0.000  0.000  0.167
     ------------------------ ATOM   91 ------------------------
     Tr[ns( 91)] =   1.00000
     eigenvalues:
       0.167  0.167  0.167
     eigenvectors (columns):
       1.000  0.000  0.000
       0.000  1.000  0.000
       0.000  0.000  1.000
     occupation matrix ns (before diag.):
       0.167  0.000  0.000
       0.000  0.167  0.000
       0.000  0.000  0.167
     ------------------------ ATOM   92 ------------------------
     Tr[ns( 92)] =   1.00000
     eigenvalues:
       0.167  0.167  0.167
     eigenvectors (columns):
       1.000  0.000  0.000
       0.000  1.000  0.000
       0.000  0.000  1.000
     occupation matrix ns (before diag.):
       0.167  0.000  0.000
       0.000  0.167  0.000
       0.000  0.000  0.167
     ------------------------ ATOM   93 ------------------------
     Tr[ns( 93)] =   3.00000
     eigenvalues:
       0.500  0.500  0.500
     eigenvectors (columns):
       1.000  0.000  0.000
       0.000  1.000  0.000
       0.000  0.000  1.000
     occupation matrix ns (before diag.):
       0.500  0.000  0.000
       0.000  0.500  0.000
       0.000  0.000  0.500
     ------------------------ ATOM   94 ------------------------
     Tr[ns( 94)] =   3.00000
     eigenvalues:
       0.500  0.500  0.500
     eigenvectors (columns):
       1.000  0.000  0.000
       0.000  1.000  0.000
       0.000  0.000  1.000
     occupation matrix ns (before diag.):
       0.500  0.000  0.000
       0.000  0.500  0.000
       0.000  0.000  0.500
     ------------------------ ATOM   95 ------------------------
     Tr[ns( 95)] =   3.00000
     eigenvalues:
       0.500  0.500  0.500
     eigenvectors (columns):
       1.000  0.000  0.000
       0.000  1.000  0.000
       0.000  0.000  1.000
     occupation matrix ns (before diag.):
       0.500  0.000  0.000
       0.000  0.500  0.000
       0.000  0.000  0.500
     ------------------------ ATOM   96 ------------------------
     Tr[ns( 96)] =   3.00000
     eigenvalues:
       0.500  0.500  0.500
     eigenvectors (columns):
       1.000  0.000  0.000
       0.000  1.000  0.000
       0.000  0.000  1.000
     occupation matrix ns (before diag.):
       0.500  0.000  0.000
       0.000  0.500  0.000
       0.000  0.000  0.500
     ------------------------ ATOM   97 ------------------------
     Tr[ns( 97)] =   1.00000
     eigenvalues:
       0.167  0.167  0.167
     eigenvectors (columns):
       1.000  0.000  0.000
       0.000  1.000  0.000
       0.000  0.000  1.000
     occupation matrix ns (before diag.):
       0.167  0.000  0.000
       0.000  0.167  0.000
       0.000  0.000  0.167
     ------------------------ ATOM   98 ------------------------
     Tr[ns( 98)] =   1.00000
     eigenvalues:
       0.167  0.167  0.167
     eigenvectors (columns):
       1.000  0.000  0.000
       0.000  1.000  0.000
       0.000  0.000  1.000
     occupation matrix ns (before diag.):
       0.167  0.000  0.000
       0.000  0.167  0.000
       0.000  0.000  0.167
     ------------------------ ATOM   99 ------------------------
     Tr[ns( 99)] =   1.00000
     eigenvalues:
       0.167  0.167  0.167
     eigenvectors (columns):
       1.000  0.000  0.000
       0.000  1.000  0.000
       0.000  0.000  1.000
     occupation matrix ns (before diag.):
       0.167  0.000  0.000
       0.000  0.167  0.000
       0.000  0.000  0.167
     ------------------------ ATOM  100 ------------------------
     Tr[ns(100)] =   1.00000
     eigenvalues:
       0.167  0.167  0.167
     eigenvectors (columns):
       1.000  0.000  0.000
       0.000  1.000  0.000
       0.000  0.000  1.000
     occupation matrix ns (before diag.):
       0.167  0.000  0.000
       0.000  0.167  0.000
       0.000  0.000  0.167
     ------------------------ ATOM  101 ------------------------
     Tr[ns(101)] =   3.00000
     eigenvalues:
       0.500  0.500  0.500
     eigenvectors (columns):
       1.000  0.000  0.000
       0.000  1.000  0.000
       0.000  0.000  1.000
     occupation matrix ns (before diag.):
       0.500  0.000  0.000
       0.000  0.500  0.000
       0.000  0.000  0.500
     ------------------------ ATOM  102 ------------------------
     Tr[ns(102)] =   3.00000
     eigenvalues:
       0.500  0.500  0.500
     eigenvectors (columns):
       1.000  0.000  0.000
       0.000  1.000  0.000
       0.000  0.000  1.000
     occupation matrix ns (before diag.):
       0.500  0.000  0.000
       0.000  0.500  0.000
       0.000  0.000  0.500
     ------------------------ ATOM  103 ------------------------
     Tr[ns(103)] =   3.00000
     eigenvalues:
       0.500  0.500  0.500
     eigenvectors (columns):
       1.000  0.000  0.000
       0.000  1.000  0.000
       0.000  0.000  1.000
     occupation matrix ns (before diag.):
       0.500  0.000  0.000
       0.000  0.500  0.000
       0.000  0.000  0.500
     ------------------------ ATOM  104 ------------------------
     Tr[ns(104)] =   3.00000
     eigenvalues:
       0.500  0.500  0.500
     eigenvectors (columns):
       1.000  0.000  0.000
       0.000  1.000  0.000
       0.000  0.000  1.000
     occupation matrix ns (before diag.):
       0.500  0.000  0.000
       0.000  0.500  0.000
       0.000  0.000  0.500
     ------------------------ ATOM  105 ------------------------
     Tr[ns(105)] =   1.00000
     eigenvalues:
       0.167  0.167  0.167
     eigenvectors (columns):
       1.000  0.000  0.000
       0.000  1.000  0.000
       0.000  0.000  1.000
     occupation matrix ns (before diag.):
       0.167  0.000  0.000
       0.000  0.167  0.000
       0.000  0.000  0.167
     ------------------------ ATOM  106 ------------------------
     Tr[ns(106)] =   1.00000
     eigenvalues:
       0.167  0.167  0.167
     eigenvectors (columns):
       1.000  0.000  0.000
       0.000  1.000  0.000
       0.000  0.000  1.000
     occupation matrix ns (before diag.):
       0.167  0.000  0.000
       0.000  0.167  0.000
       0.000  0.000  0.167
     ------------------------ ATOM  107 ------------------------
     Tr[ns(107)] =   1.00000
     eigenvalues:
       0.167  0.167  0.167
     eigenvectors (columns):
       1.000  0.000  0.000
       0.000  1.000  0.000
       0.000  0.000  1.000
     occupation matrix ns (before diag.):
       0.167  0.000  0.000
       0.000  0.167  0.000
       0.000  0.000  0.167
     ------------------------ ATOM  108 ------------------------
     Tr[ns(108)] =   1.00000
     eigenvalues:
       0.167  0.167  0.167
     eigenvectors (columns):
       1.000  0.000  0.000
       0.000  1.000  0.000
       0.000  0.000  1.000
     occupation matrix ns (before diag.):
       0.167  0.000  0.000
       0.000  0.167  0.000
       0.000  0.000  0.167
     ------------------------ ATOM  109 ------------------------
     Tr[ns(109)] =   3.00000
     eigenvalues:
       0.500  0.500  0.500
     eigenvectors (columns):
       1.000  0.000  0.000
       0.000  1.000  0.000
       0.000  0.000  1.000
     occupation matrix ns (before diag.):
       0.500  0.000  0.000
       0.000  0.500  0.000
       0.000  0.000  0.500
     ------------------------ ATOM  110 ------------------------
     Tr[ns(110)] =   3.00000
     eigenvalues:
       0.500  0.500  0.500
     eigenvectors (columns):
       1.000  0.000  0.000
       0.000  1.000  0.000
       0.000  0.000  1.000
     occupation matrix ns (before diag.):
       0.500  0.000  0.000
       0.000  0.500  0.000
       0.000  0.000  0.500
     ------------------------ ATOM  111 ------------------------
     Tr[ns(111)] =   3.00000
     eigenvalues:
       0.500  0.500  0.500
     eigenvectors (columns):
       1.000  0.000  0.000
       0.000  1.000  0.000
       0.000  0.000  1.000
     occupation matrix ns (before diag.):
       0.500  0.000  0.000
       0.000  0.500  0.000
       0.000  0.000  0.500
     ------------------------ ATOM  112 ------------------------
     Tr[ns(112)] =   3.00000
     eigenvalues:
       0.500  0.500  0.500
     eigenvectors (columns):
       1.000  0.000  0.000
       0.000  1.000  0.000
       0.000  0.000  1.000
     occupation matrix ns (before diag.):
       0.500  0.000  0.000
       0.000  0.500  0.000
       0.000  0.000  0.500
     ------------------------ ATOM  113 ------------------------
     Tr[ns(113)] =   1.00000
     eigenvalues:
       0.167  0.167  0.167
     eigenvectors (columns):
       1.000  0.000  0.000
       0.000  1.000  0.000
       0.000  0.000  1.000
     occupation matrix ns (before diag.):
       0.167  0.000  0.000
       0.000  0.167  0.000
       0.000  0.000  0.167
     ------------------------ ATOM  114 ------------------------
     Tr[ns(114)] =   1.00000
     eigenvalues:
       0.167  0.167  0.167
     eigenvectors (columns):
       1.000  0.000  0.000
       0.000  1.000  0.000
       0.000  0.000  1.000
     occupation matrix ns (before diag.):
       0.167  0.000  0.000
       0.000  0.167  0.000
       0.000  0.000  0.167
     ------------------------ ATOM  115 ------------------------
     Tr[ns(115)] =   1.00000
     eigenvalues:
       0.167  0.167  0.167
     eigenvectors (columns):
       1.000  0.000  0.000
       0.000  1.000  0.000
       0.000  0.000  1.000
     occupation matrix ns (before diag.):
       0.167  0.000  0.000
       0.000  0.167  0.000
       0.000  0.000  0.167
     ------------------------ ATOM  116 ------------------------
     Tr[ns(116)] =   1.00000
     eigenvalues:
       0.167  0.167  0.167
     eigenvectors (columns):
       1.000  0.000  0.000
       0.000  1.000  0.000
       0.000  0.000  1.000
     occupation matrix ns (before diag.):
       0.167  0.000  0.000
       0.000  0.167  0.000
       0.000  0.000  0.167
     ------------------------ ATOM  117 ------------------------
     Tr[ns(117)] =   3.00000
     eigenvalues:
       0.500  0.500  0.500
     eigenvectors (columns):
       1.000  0.000  0.000
       0.000  1.000  0.000
       0.000  0.000  1.000
     occupation matrix ns (before diag.):
       0.500  0.000  0.000
       0.000  0.500  0.000
       0.000  0.000  0.500
     ------------------------ ATOM  118 ------------------------
     Tr[ns(118)] =   3.00000
     eigenvalues:
       0.500  0.500  0.500
     eigenvectors (columns):
       1.000  0.000  0.000
       0.000  1.000  0.000
       0.000  0.000  1.000
     occupation matrix ns (before diag.):
       0.500  0.000  0.000
       0.000  0.500  0.000
       0.000  0.000  0.500
     ------------------------ ATOM  119 ------------------------
     Tr[ns(119)] =   3.00000
     eigenvalues:
       0.500  0.500  0.500
     eigenvectors (columns):
       1.000  0.000  0.000
       0.000  1.000  0.000
       0.000  0.000  1.000
     occupation matrix ns (before diag.):
       0.500  0.000  0.000
       0.000  0.500  0.000
       0.000  0.000  0.500
     ------------------------ ATOM  120 ------------------------
     Tr[ns(120)] =   3.00000
     eigenvalues:
       0.500  0.500  0.500
     eigenvectors (columns):
       1.000  0.000  0.000
       0.000  1.000  0.000
       0.000  0.000  1.000
     occupation matrix ns (before diag.):
       0.500  0.000  0.000
       0.000  0.500  0.000
       0.000  0.000  0.500
     ------------------------ ATOM  121 ------------------------
     Tr[ns(121)] =   1.00000
     eigenvalues:
       0.167  0.167  0.167
     eigenvectors (columns):
       1.000  0.000  0.000
       0.000  1.000  0.000
       0.000  0.000  1.000
     occupation matrix ns (before diag.):
       0.167  0.000  0.000
       0.000  0.167  0.000
       0.000  0.000  0.167
     ------------------------ ATOM  122 ------------------------
     Tr[ns(122)] =   1.00000
     eigenvalues:
       0.167  0.167  0.167
     eigenvectors (columns):
       1.000  0.000  0.000
       0.000  1.000  0.000
       0.000  0.000  1.000
     occupation matrix ns (before diag.):
       0.167  0.000  0.000
       0.000  0.167  0.000
       0.000  0.000  0.167
     ------------------------ ATOM  123 ------------------------
     Tr[ns(123)] =   1.00000
     eigenvalues:
       0.167  0.167  0.167
     eigenvectors (columns):
       1.000  0.000  0.000
       0.000  1.000  0.000
       0.000  0.000  1.000
     occupation matrix ns (before diag.):
       0.167  0.000  0.000
       0.000  0.167  0.000
       0.000  0.000  0.167
     ------------------------ ATOM  124 ------------------------
     Tr[ns(124)] =   1.00000
     eigenvalues:
       0.167  0.167  0.167
     eigenvectors (columns):
       1.000  0.000  0.000
       0.000  1.000  0.000
       0.000  0.000  1.000
     occupation matrix ns (before diag.):
       0.167  0.000  0.000
       0.000  0.167  0.000
       0.000  0.000  0.167
     ------------------------ ATOM  125 ------------------------
     Tr[ns(125)] =   3.00000
     eigenvalues:
       0.500  0.500  0.500
     eigenvectors (columns):
       1.000  0.000  0.000
       0.000  1.000  0.000
       0.000  0.000  1.000
     occupation matrix ns (before diag.):
       0.500  0.000  0.000
       0.000  0.500  0.000
       0.000  0.000  0.500
     ------------------------ ATOM  126 ------------------------
     Tr[ns(126)] =   3.00000
     eigenvalues:
       0.500  0.500  0.500
     eigenvectors (columns):
       1.000  0.000  0.000
       0.000  1.000  0.000
       0.000  0.000  1.000
     occupation matrix ns (before diag.):
       0.500  0.000  0.000
       0.000  0.500  0.000
       0.000  0.000  0.500
     ------------------------ ATOM  127 ------------------------
     Tr[ns(127)] =   3.00000
     eigenvalues:
       0.500  0.500  0.500
     eigenvectors (columns):
       1.000  0.000  0.000
       0.000  1.000  0.000
       0.000  0.000  1.000
     occupation matrix ns (before diag.):
       0.500  0.000  0.000
       0.000  0.500  0.000
       0.000  0.000  0.500
     ------------------------ ATOM  128 ------------------------
     Tr[ns(128)] =   3.00000
     eigenvalues:
       0.500  0.500  0.500
     eigenvectors (columns):
       1.000  0.000  0.000
       0.000  1.000  0.000
       0.000  0.000  1.000
     occupation matrix ns (before diag.):
       0.500  0.000  0.000
       0.000  0.500  0.000
       0.000  0.000  0.500
     ------------------------ ATOM  129 ------------------------
     Tr[ns(129)] =   1.00000
     eigenvalues:
       0.167  0.167  0.167
     eigenvectors (columns):
       1.000  0.000  0.000
       0.000  1.000  0.000
       0.000  0.000  1.000
     occupation matrix ns (before diag.):
       0.167  0.000  0.000
       0.000  0.167  0.000
       0.000  0.000  0.167
     ------------------------ ATOM  130 ------------------------
     Tr[ns(130)] =   1.00000
     eigenvalues:
       0.167  0.167  0.167
     eigenvectors (columns):
       1.000  0.000  0.000
       0.000  1.000  0.000
       0.000  0.000  1.000
     occupation matrix ns (before diag.):
       0.167  0.000  0.000
       0.000  0.167  0.000
       0.000  0.000  0.167
     ------------------------ ATOM  131 ------------------------
     Tr[ns(131)] =   1.00000
     eigenvalues:
       0.167  0.167  0.167
     eigenvectors (columns):
       1.000  0.000  0.000
       0.000  1.000  0.000
       0.000  0.000  1.000
     occupation matrix ns (before diag.):
       0.167  0.000  0.000
       0.000  0.167  0.000
       0.000  0.000  0.167
     ------------------------ ATOM  132 ------------------------
     Tr[ns(132)] =   1.00000
     eigenvalues:
       0.167  0.167  0.167
     eigenvectors (columns):
       1.000  0.000  0.000
       0.000  1.000  0.000
       0.000  0.000  1.000
     occupation matrix ns (before diag.):
       0.167  0.000  0.000
       0.000  0.167  0.000
       0.000  0.000  0.167
     ------------------------ ATOM  133 ------------------------
     Tr[ns(133)] =   3.00000
     eigenvalues:
       0.500  0.500  0.500
     eigenvectors (columns):
       1.000  0.000  0.000
       0.000  1.000  0.000
       0.000  0.000  1.000
     occupation matrix ns (before diag.):
       0.500  0.000  0.000
       0.000  0.500  0.000
       0.000  0.000  0.500
     ------------------------ ATOM  134 ------------------------
     Tr[ns(134)] =   3.00000
     eigenvalues:
       0.500  0.500  0.500
     eigenvectors (columns):
       1.000  0.000  0.000
       0.000  1.000  0.000
       0.000  0.000  1.000
     occupation matrix ns (before diag.):
       0.500  0.000  0.000
       0.000  0.500  0.000
       0.000  0.000  0.500
     ------------------------ ATOM  135 ------------------------
     Tr[ns(135)] =   3.00000
     eigenvalues:
       0.500  0.500  0.500
     eigenvectors (columns):
       1.000  0.000  0.000
       0.000  1.000  0.000
       0.000  0.000  1.000
     occupation matrix ns (before diag.):
       0.500  0.000  0.000
       0.000  0.500  0.000
       0.000  0.000  0.500
     ------------------------ ATOM  136 ------------------------
     Tr[ns(136)] =   3.00000
     eigenvalues:
       0.500  0.500  0.500
     eigenvectors (columns):
       1.000  0.000  0.000
       0.000  1.000  0.000
       0.000  0.000  1.000
     occupation matrix ns (before diag.):
       0.500  0.000  0.000
       0.000  0.500  0.000
       0.000  0.000  0.500
     ------------------------ ATOM  137 ------------------------
     Tr[ns(137)] =   1.00000
     eigenvalues:
       0.167  0.167  0.167
     eigenvectors (columns):
       1.000  0.000  0.000
       0.000  1.000  0.000
       0.000  0.000  1.000
     occupation matrix ns (before diag.):
       0.167  0.000  0.000
       0.000  0.167  0.000
       0.000  0.000  0.167
     ------------------------ ATOM  138 ------------------------
     Tr[ns(138)] =   1.00000
     eigenvalues:
       0.167  0.167  0.167
     eigenvectors (columns):
       1.000  0.000  0.000
       0.000  1.000  0.000
       0.000  0.000  1.000
     occupation matrix ns (before diag.):
       0.167  0.000  0.000
       0.000  0.167  0.000
       0.000  0.000  0.167
     ------------------------ ATOM  139 ------------------------
     Tr[ns(139)] =   1.00000
     eigenvalues:
       0.167  0.167  0.167
     eigenvectors (columns):
       1.000  0.000  0.000
       0.000  1.000  0.000
       0.000  0.000  1.000
     occupation matrix ns (before diag.):
       0.167  0.000  0.000
       0.000  0.167  0.000
       0.000  0.000  0.167
     ------------------------ ATOM  140 ------------------------
     Tr[ns(140)] =   1.00000
     eigenvalues:
       0.167  0.167  0.167
     eigenvectors (columns):
       1.000  0.000  0.000
       0.000  1.000  0.000
       0.000  0.000  1.000
     occupation matrix ns (before diag.):
       0.167  0.000  0.000
       0.000  0.167  0.000
       0.000  0.000  0.167
     ------------------------ ATOM  141 ------------------------
     Tr[ns(141)] =   3.00000
     eigenvalues:
       0.500  0.500  0.500
     eigenvectors (columns):
       1.000  0.000  0.000
       0.000  1.000  0.000
       0.000  0.000  1.000
     occupation matrix ns (before diag.):
       0.500  0.000  0.000
       0.000  0.500  0.000
       0.000  0.000  0.500
     ------------------------ ATOM  142 ------------------------
     Tr[ns(142)] =   3.00000
     eigenvalues:
       0.500  0.500  0.500
     eigenvectors (columns):
       1.000  0.000  0.000
       0.000  1.000  0.000
       0.000  0.000  1.000
     occupation matrix ns (before diag.):
       0.500  0.000  0.000
       0.000  0.500  0.000
       0.000  0.000  0.500
     ------------------------ ATOM  143 ------------------------
     Tr[ns(143)] =   3.00000
     eigenvalues:
       0.500  0.500  0.500
     eigenvectors (columns):
       1.000  0.000  0.000
       0.000  1.000  0.000
       0.000  0.000  1.000
     occupation matrix ns (before diag.):
       0.500  0.000  0.000
       0.000  0.500  0.000
       0.000  0.000  0.500
     ------------------------ ATOM  144 ------------------------
     Tr[ns(144)] =   3.00000
     eigenvalues:
       0.500  0.500  0.500
     eigenvectors (columns):
       1.000  0.000  0.000
       0.000  1.000  0.000
       0.000  0.000  1.000
     occupation matrix ns (before diag.):
       0.500  0.000  0.000
       0.000  0.500  0.000
       0.000  0.000  0.500
     ------------------------ ATOM  145 ------------------------
     Tr[ns(145)] =   1.00000
     eigenvalues:
       0.167  0.167  0.167
     eigenvectors (columns):
       1.000  0.000  0.000
       0.000  1.000  0.000
       0.000  0.000  1.000
     occupation matrix ns (before diag.):
       0.167  0.000  0.000
       0.000  0.167  0.000
       0.000  0.000  0.167
     ------------------------ ATOM  146 ------------------------
     Tr[ns(146)] =   1.00000
     eigenvalues:
       0.167  0.167  0.167
     eigenvectors (columns):
       1.000  0.000  0.000
       0.000  1.000  0.000
       0.000  0.000  1.000
     occupation matrix ns (before diag.):
       0.167  0.000  0.000
       0.000  0.167  0.000
       0.000  0.000  0.167
     ------------------------ ATOM  147 ------------------------
     Tr[ns(147)] =   1.00000
     eigenvalues:
       0.167  0.167  0.167
     eigenvectors (columns):
       1.000  0.000  0.000
       0.000  1.000  0.000
       0.000  0.000  1.000
     occupation matrix ns (before diag.):
       0.167  0.000  0.000
       0.000  0.167  0.000
       0.000  0.000  0.167
     ------------------------ ATOM  148 ------------------------
     Tr[ns(148)] =   1.00000
     eigenvalues:
       0.167  0.167  0.167
     eigenvectors (columns):
       1.000  0.000  0.000
       0.000  1.000  0.000
       0.000  0.000  1.000
     occupation matrix ns (before diag.):
       0.167  0.000  0.000
       0.000  0.167  0.000
       0.000  0.000  0.167
     ------------------------ ATOM  149 ------------------------
     Tr[ns(149)] =   3.00000
     eigenvalues:
       0.500  0.500  0.500
     eigenvectors (columns):
       1.000  0.000  0.000
       0.000  1.000  0.000
       0.000  0.000  1.000
     occupation matrix ns (before diag.):
       0.500  0.000  0.000
       0.000  0.500  0.000
       0.000  0.000  0.500
     ------------------------ ATOM  150 ------------------------
     Tr[ns(150)] =   3.00000
     eigenvalues:
       0.500  0.500  0.500
     eigenvectors (columns):
       1.000  0.000  0.000
       0.000  1.000  0.000
       0.000  0.000  1.000
     occupation matrix ns (before diag.):
       0.500  0.000  0.000
       0.000  0.500  0.000
       0.000  0.000  0.500
     ------------------------ ATOM  151 ------------------------
     Tr[ns(151)] =   3.00000
     eigenvalues:
       0.500  0.500  0.500
     eigenvectors (columns):
       1.000  0.000  0.000
       0.000  1.000  0.000
       0.000  0.000  1.000
     occupation matrix ns (before diag.):
       0.500  0.000  0.000
       0.000  0.500  0.000
       0.000  0.000  0.500
     ------------------------ ATOM  152 ------------------------
[...]
   -19.7086 -19.7083 -19.7083 -19.7082 -19.7078 -19.7078 -19.7077 -19.7077
   -19.7076 -19.7075 -19.7074 -19.7073 -19.7073 -19.7072 -19.7070 -19.7069
   -19.7068 -19.7067 -19.7066 -19.7065 -19.7065 -19.7064 -19.7062 -19.7060
   -19.7059 -19.7058 -19.7058 -19.7058 -19.7057 -19.7056 -19.7055 -19.7054
   -19.7053 -19.7053 -19.7051 -19.7050 -19.7049 -19.7047 -19.7044 -19.7044
   -19.7043 -19.7042 -19.7042 -19.7040 -19.7039 -19.7039 -19.7039 -19.7038
   -19.7038 -19.7035 -19.7035 -19.7033 -19.7032 -19.7032 -19.7030 -19.7030
   -19.7028 -19.7027 -19.7026 -19.7025 -19.7024 -19.7023 -19.7022 -19.7021
   -19.7019 -19.7019 -19.7017 -19.7017 -19.7017 -19.7013 -19.7013 -19.7011
   -19.7011 -19.7009 -19.7007 -19.7006 -19.7006 -19.7005 -19.7003 -19.6999
   -19.6998 -19.6998 -19.6997 -19.6993 -19.6992 -19.6988 -19.6987 -19.6985
   -19.6983 -19.6981 -19.6980 -19.6979 -19.6978 -19.6976 -19.6976 -19.6974
   -19.6972 -19.6972 -19.6972 -19.6968 -19.6967 -19.6966 -19.6964 -19.6962
   -19.6962 -19.6962 -19.6960 -19.6959 -19.6959 -19.6958 -19.6954 -19.6954
   -19.6950 -19.6947 -19.6946 -19.6945 -19.6942 -19.6940 -19.6940 -19.6939
   -19.6936 -19.6932 -19.6931 -19.6931 -19.6925 -19.6923 -19.6922 -19.6920
   -19.6918 -19.6916 -19.6915 -19.6914 -19.6914 -19.6909 -19.6909 -19.6906
   -19.6905 -19.6903 -19.6903 -19.6901 -19.6898 -19.6896 -19.6895 -19.6894
   -19.6890 -19.6890 -19.6889 -19.6888 -19.6886 -19.6884 -19.6884 -19.6883
   -19.6882 -19.6880 -19.6877 -19.6876 -19.6876 -19.6874 -19.6873 -19.6872
   -19.6866 -19.6865 -19.6863 -19.6862 -19.6856 -19.6854 -19.6853 -19.6852
   -19.6852 -19.6849 -19.6848 -19.6844 -19.6844 -19.6841 -19.6840 -19.6839
   -19.6830 -19.6829 -19.6828 -19.6826 -19.6817 -19.6815 -19.6814 -19.6813
   -19.6813 -19.6810 -19.6804 -19.6799 -19.6796 -19.6790 -19.6790 -19.6772
   -19.6769 -19.6763 -19.6762 -19.6755 -19.6753 -19.6726 -19.6722 -19.6705
   -19.6697 -19.6693 -19.6671 -19.6646  -7.4641  -7.4612  -7.4603  -7.4578
    -7.4569  -7.4536  -7.4493  -7.4472  -7.4441  -7.4415  -7.4411  -7.4394
    -7.4373  -7.4347  -7.4341  -7.4323  -7.4302  -7.4271  -7.4266  -7.4234
    -7.4203  -7.4193  -7.4187  -7.4172  -7.4170  -7.4162  -7.4149  -7.4141
    -7.4101  -7.4097  -7.4095  -7.4087  -7.4083  -7.4069  -7.4054  -7.4034
    -7.4032  -7.4013  -7.4008  -7.4006  -7.3989  -7.3967  -7.3946  -7.3940
    -7.3939  -7.3926  -7.3913  -7.3902  -7.3898  -7.3876  -7.3872  -7.3866
    -7.3859  -7.3856  -7.3837  -7.3834  -7.3825  -7.3818  -7.3810  -7.3803
    -7.3795  -7.3771  -7.3762  -7.3760  -7.3746  -7.3740  -7.3737  -7.3721
    -7.3719  -7.3711  -7.3705  -7.3697  -7.3677  -7.3661  -7.3646  -7.3643
    -7.3640  -7.3629  -7.3628  -7.3610  -7.3609  -7.3599  -7.3591  -7.3586
    -7.3580  -7.3574  -7.3564  -7.3551  -7.3542  -7.3524  -7.3513  -7.3511
    -7.3507  -7.3501  -7.3486  -7.3480  -7.3474  -7.3470  -7.3462  -7.3457
    -7.3438  -7.3433  -7.3431  -7.3430  -7.3425  -7.3410  -7.3401  -7.3397
    -7.3392  -7.3389  -7.3386  -7.3382  -7.3378  -7.3371  -7.3357  -7.3355
    -7.3343  -7.3334  -7.3330  -7.3328  -7.3325  -7.3316  -7.3303  -7.3302
    -7.3298  -7.3291  -7.3289  -7.3285  -7.3272  -7.3271  -7.3254  -7.3253
    -7.3249  -7.3237  -7.3229  -7.3225  -7.3221  -7.3220  -7.3215  -7.3212
    -7.3198  -7.3197  -7.3189  -7.3185  -7.3176  -7.3171  -7.3162  -7.3160
    -7.3151  -7.3149  -7.3140  -7.3134  -7.3131  -7.3126  -7.3112  -7.3110
    -7.3105  -7.3104  -7.3091  -7.3088  -7.3085  -7.3080  -7.3079  -7.3078
    -7.3076  -7.3075  -7.3069  -7.3067  -7.3066  -7.3064  -7.3063  -7.3058
    -7.3057  -7.3054  -7.3053  -7.3051  -7.3049  -7.3046  -7.3044  -7.3042
    -7.3039  -7.3035  -7.3030  -7.3028  -7.3026  -7.3024  -7.3013  -7.3011
    -7.3010  -7.3008  -7.3004  -7.3000  -7.3000  -7.2995  -7.2991  -7.2988
    -7.2987  -7.2982  -7.2980  -7.2971  -7.2968  -7.2966  -7.2959  -7.2957
    -7.2953  -7.2952  -7.2944  -7.2939  -7.2937  -7.2935  -7.2930  -7.2925
    -7.2922  -7.2918  -7.2917  -7.2910  -7.2907  -7.2903  -7.2895  -7.2893
    -7.2890  -7.2886  -7.2881  -7.2879  -7.2876  -7.2872  -7.2864  -7.2861
    -7.2858  -7.2853  -7.2850  -7.2845  -7.2839  -7.2838  -7.2831  -7.2824
    -7.2823  -7.2819  -7.2815  -7.2810  -7.2806  -7.2795  -7.2789  -7.2787
    -7.2780  -7.2776  -7.2774  -7.2771  -7.2768  -7.2766  -7.2761  -7.2761
    -7.2756  -7.2753  -7.2752  -7.2750  -7.2741  -7.2737  -7.2732  -7.2728
    -7.2726  -7.2719  -7.2718  -7.2714  -7.2711  -7.2706  -7.2702  -7.2700
    -7.2697  -7.2695  -7.2694  -7.2687  -7.2684  -7.2680  -7.2673  -7.2672
    -7.2665  -7.2660  -7.2657  -7.2655  -7.2652  -7.2647  -7.2641  -7.2639
    -7.2635  -7.2628  -7.2627  -7.2625  -7.2619  -7.2618  -7.2616  -7.2615
    -7.2612  -7.2610  -7.2608  -7.2603  -7.2596  -7.2594  -7.2591  -7.2590
    -7.2585  -7.2583  -7.2580  -7.2577  -7.2576  -7.2572  -7.2570  -7.2566
    -7.2562  -7.2559  -7.2557  -7.2555  -7.2552  -7.2548  -7.2544  -7.2542
    -7.2540  -7.2532  -7.2532  -7.2526  -7.2525  -7.2522  -7.2520  -7.2519
    -7.2511  -7.2508  -7.2505  -7.2502  -7.2498  -7.2494  -7.2490  -7.2489
    -7.2485  -7.2483  -7.2482  -7.2480  -7.2479  -7.2475  -7.2473  -7.2471
    -7.2464  -7.2461  -7.2460  -7.2458  -7.2455  -7.2453  -7.2450  -7.2442
    -7.2441  -7.2439  -7.2436  -7.2429  -7.2427  -7.2427  -7.2420  -7.2419
    -7.2415  -7.2410  -7.2407  -7.2402  -7.2397  -7.2395  -7.2388  -7.2385
    -7.2384  -7.2384  -7.2380  -7.2374  -7.2371  -7.2367  -7.2364  -7.2357
    -7.2353  -7.2352  -7.2346  -7.2344  -7.2341  -7.2340  -7.2334  -7.2330
    -7.2324  -7.2316  -7.2313  -7.2308  -7.2301  -7.2298  -7.2296  -7.2293
    -7.2291  -7.2281  -7.2277  -7.2275  -7.2273  -7.2267  -7.2265  -7.2260
    -7.2258  -7.2254  -7.2249  -7.2249  -7.2246  -7.2242  -7.2238  -7.2232
    -7.2229  -7.2227  -7.2223  -7.2220  -7.2217  -7.2215  -7.2209  -7.2206
    -7.2203  -7.2194  -7.2189  -7.2182  -7.2181  -7.2178  -7.2172  -7.2167
    -7.2164  -7.2162  -7.2159  -7.2155  -7.2154  -7.2150  -7.2148  -7.2146
    -7.2141  -7.2137  -7.2134  -7.2134  -7.2128  -7.2123  -7.2122  -7.2121
    -7.2117  -7.2112  -7.2107  -7.2105  -7.2102  -7.2096  -7.2094  -7.2091
    -7.2087  -7.2082  -7.2079  -7.2076  -7.2074  -7.2072  -7.2064  -7.2056
    -7.2053  -7.2045  -7.2042  -7.2034  -7.2032  -7.2027  -7.2025  -7.2019
    -7.2009  -7.2000  -7.1995  -7.1990  -7.1988  -7.1987  -7.1978  -7.1975
    -7.1975  -7.1971  -7.1968  -7.1961  -7.1959  -7.1958  -7.1950  -7.1942
    -7.1936  -7.1934  -7.1933  -7.1928  -7.1925  -7.1918  -7.1915  -7.1903
    -7.1902  -7.1896  -7.1893  -7.1891  -7.1884  -7.1872  -7.1868  -7.1867
    -7.1864  -7.1855  -7.1851  -7.1844  -7.1838  -7.1830  -7.1827  -7.1818
    -7.1816  -7.1797  -7.1791  -7.1768  -7.1765  -7.1754  -7.1746  -7.1744
    -7.1737  -7.1729  -7.1722  -7.1721  -7.1719  -7.1715  -7.1700  -7.1692
    -7.1688  -7.1680  -7.1670  -7.1661  -7.1645  -7.1634  -7.1626  -7.1609
    -7.1598  -7.1594  -7.1590  -7.1587  -7.1576  -7.1568  -7.1565  -7.1556
    -7.1503  -7.1502  -7.1476  -7.1471  -7.1457  -7.1434  -7.1145  -7.1120
    -3.5205  -3.4028  -3.3846  -3.3222  -3.3135  -3.2764  -3.2256  -3.1804
    -3.1253  -3.1242  -3.0897  -3.0521  -3.0304  -2.9242  -2.9130  -2.8703
    -2.8251  -2.8035  -2.7702  -2.7237  -2.7067  -2.6804  -2.6423  -2.6340
    -2.6063  -2.5549  -2.5435  -2.5214  -2.5112  -2.4455  -2.4236  -2.4152
    -2.3503  -2.3375  -2.3253  -2.3097  -2.2902  -2.2692  -2.2477  -2.2255
    -2.1942  -2.1821  -2.1236  -2.0663  -2.0631  -2.0538  -2.0381  -2.0307
    -2.0104  -1.9857  -1.9786  -1.9662  -1.9612  -1.9483  -1.9399  -1.9280
    -1.8136  -1.7569  -1.7317  -1.7037  -1.6927  -1.6543  -1.6367  -1.6183
    -1.5800  -1.5766  -1.5582  -1.5403  -1.5086  -1.4857  -1.4765  -1.4585
    -1.4397  -1.4172  -1.4070  -1.3975  -1.3920  -1.3791  -1.3585  -1.3442
    -1.3046  -1.2852  -1.2510  -1.2346  -1.2132  -1.1822  -1.1696  -1.1566
    -1.1410  -1.1185  -1.1167  -1.0947  -1.0882  -1.0744  -1.0510  -1.0234
    -0.9995  -0.9559  -0.9299  -0.8837  -0.8222  -0.8152  -0.7839  -0.7634
    -0.7509  -0.7219  -0.6720  -0.6512  -0.3788  -0.1840  -0.1519  -0.0734
     0.0874   0.1120   0.1184   0.1433   0.1689   0.1892   0.2098   0.2171
     0.2295   0.2490   0.3113   0.3432   0.3590   0.3631   0.3827   0.4020
     0.4254   0.4455   0.4630   0.4816   0.5078   0.5264   0.5407   0.5909
     0.6052   0.6206   0.6395   0.6574   0.6884   0.6891   0.6899   0.7011
     0.7122   0.7262   0.7294   0.7409   0.7589   0.7766   0.7818   0.7955
     0.7965   0.8075   0.8190   0.8357   0.8469   0.8530   0.8614   0.8690
     0.8814   0.8972   0.9091   0.9108   0.9372   0.9489   0.9656   0.9735
     1.4610   1.4910   1.5839   1.6067   1.6525   1.6747   1.6800   1.6965
     1.7259   1.7621   1.7828   1.7979   1.8117   1.8416   1.8503   1.8814
     1.8937   1.9071   1.9470   1.9684   1.9773   2.0092   2.0240   2.0390
     2.0522   2.0563   2.0848   2.0997   2.8645   2.8962   2.9285   2.9627
     3.0007   3.0115   3.0310   3.0440   3.0927   3.1062   3.1543   3.1819
     3.1844   3.1924   3.2043   3.2512   3.3125   3.3283   3.3329   3.3631
     3.3781   3.4028   3.4074   3.4479   3.4592   3.4779   3.4802   3.5097
     3.5175   3.5432   3.5588   3.5699   3.5853   3.6246   3.6343   3.6406
     3.6582   3.6644   3.6695   3.6937   3.7144   3.7163   3.7322   3.7454
     3.7560   3.7716   3.7870   3.8038   3.8101   3.8258   3.8320   3.8528
     3.8631   3.8706   3.8819   3.8917   3.8987   3.9043   3.9186   3.9330
     3.9503   3.9574   3.9691   3.9971   4.1790   4.2385   4.2825   4.3159
     4.3277   4.3423   4.3650   4.3953   4.4189   4.4375   4.4488   4.4661
     4.4728   4.4963   4.5032   4.5264   4.5324   4.5712   4.5814   4.5879
     4.5980   4.6222   4.6418   4.6505   4.6702   4.6897   4.6960   4.7084
     4.7311   4.7340   4.7654   4.7770   4.7878   4.8043   4.8067   4.8227
     4.8426   4.8521   4.8653   4.8771   4.8926   4.9129   4.9361   4.9538
     4.9629   4.9688   4.9919   4.9935   5.0293   5.0346   5.0538   5.0642
     5.0768   5.0951   5.0984   5.1041   5.1213   5.1361   5.1616   5.1645
     5.1743   5.1904   5.1960   5.2112   5.2315   5.2443   5.2482   5.2573
     5.2593   5.2822   5.2874   5.2931   5.3067   5.3372   5.3438   5.3715
     5.3806   5.3905   5.4107   5.4221   5.4292   5.4704   5.4728   5.4965
     5.5028   5.5031   5.5157   5.5384   5.5507   5.5767   5.5832   5.6102
     5.6204   5.6429   5.6507   5.6690   5.6873   5.7055   5.7199   5.7263
     5.7395   5.7453   5.7664   5.7784   5.7834   5.7954   5.8097   5.8333
     5.8477   5.8681   5.9038   5.9181   5.9673   5.9813   5.9907   6.0042
     6.0188   6.0401   6.0577   6.0968   6.1097   6.1450   6.1579   6.1725
     6.1745   6.1884   6.2162   6.2346   6.2366   6.2646   6.2981   6.3134
     6.3260   6.3524   6.3585   6.3686   6.3779   6.3979   6.4157   6.4224
     6.4412   6.4579   6.4632   6.4856   6.5104   6.5190   6.5392   6.5450
     6.5648   6.6153   6.6263   6.6387   6.6515   6.6623   6.6927   6.7065
     6.7086   6.7335   6.7542   6.7654   6.7732   6.7930   6.8035   6.8186
     6.8433   6.9353   6.9654   7.0039   7.3938   7.4226   7.5270   7.6020
     9.1547   9.1808   9.1965   9.2254   9.2622   9.3089   9.3164   9.3775
     9.3874   9.4362   9.4576   9.4778   9.4945   9.5019   9.5246   9.5331
     9.5405   9.5639   9.5768   9.5856   9.5978   9.6038   9.6181   9.6217
     9.6377   9.6544   9.6822   9.6880   9.7241   9.7283   9.7393   9.7650
     9.7976   9.8116   9.8332   9.8384   9.8617   9.8738   9.9031   9.9078
     9.9099   9.9249   9.9344   9.9490   9.9556   9.9666   9.9810   9.9856
     9.9944   9.9988  10.0253  10.0307  10.0459  10.0499  10.0818  10.0881
    10.1058  10.1193  10.1247  10.1314  10.1466  10.1590  10.1825  10.1893
    10.1970  10.2138  10.2318  10.2383  10.2608  10.2645  10.2761  10.2859
    10.2994  10.3127  10.3197  10.3325  10.3511  10.3545  10.3596  10.3665
    10.3785  10.3890  10.4152  10.4324  10.4451  10.4610  10.4743  10.4950
    10.5138  10.5162  10.5297  10.5411  10.5499  10.5583  10.5724  10.5749
    10.5830  10.5924  10.6004  10.6128  10.6165  10.6344  10.6523  10.6647
    10.6950  10.7077  10.7352  10.7484  11.0329  11.0459  11.1268  11.1525
    11.2395  11.2512  11.3101  11.3234  11.3442  11.3548  11.3584  11.3838
    11.4016  11.4106  11.4183  11.4467  11.4603  11.4635  11.4733  11.4907
    11.4979  11.5083  11.5154  11.5235  11.5483  11.5531  11.5555  11.5677
    11.5758  11.5814  11.5859  11.5963  11.6050  11.6155  11.6206  11.6296
    11.6424  11.6476  11.6796  11.6864  11.6927  11.7099  11.7370  11.7539
    11.8818  11.8968  11.9055  11.9224  11.9274  11.9426  11.9493  11.9608
    11.9744  11.9812  12.0030  12.0126  12.0204  12.0323  12.0380  12.0516
    12.1429  12.1552  12.1683  12.1729  12.1877  12.2023  12.2117  12.2266
    12.2309  12.2444  12.2488  12.2513  12.2572  12.2656  12.2755  12.2838
    12.2870  12.3045  12.3119  12.3210  12.3276  12.3319  12.3389  12.3532
    12.3564  12.3684  12.3727  12.3762  12.3900  12.4099  12.4222  12.4240
    12.4270  12.4448  12.4543  12.4576  12.4714  12.4852  12.4928  12.4983
    12.5071  12.5151  12.5229  12.5258  12.5279  12.5348  12.5520  12.5627
    12.5662  12.5857  12.5959  12.6042  12.6245  12.6361  12.6618  12.6693
    12.6956  12.7109  12.7411  12.7719  12.8321  12.8369  12.8699  12.8768
    12.8940  12.9030  12.9236  12.9316  12.9828  12.9891  12.9946  13.0059
    13.0344  13.0423  13.0553  13.0661  13.0713  13.0782  13.0896  13.0947
    13.0995  13.1198  13.1230  13.1356  13.1385  13.1602  13.1667  13.1719
    13.1813  13.1891  13.2010  13.2021  13.2055  13.2103  13.2144  13.2223
    13.2288  13.2327  13.2519  13.2646  13.2709  13.3062  13.3168  13.3318
    13.3446  13.3576  13.3736  13.3776  13.4013  13.4077  13.4150  13.4365
    13.4610  13.4742  13.4775  13.4923  13.5721  13.5964  13.6019  13.6129
    13.6274  13.6327  13.6435  13.6532  13.6778  13.6802  13.6946  13.6994
    13.7164  13.7180  13.7253  13.7315  13.7410  13.7492  13.7543  13.7628
    13.7690  13.7789  13.7829  13.7938  13.7967  13.8065  13.8278  13.8425
    13.8476  13.8579  13.8628  13.8737  13.8849  13.8885  13.8961  13.9152
    13.9205  13.9281  13.9338  13.9404  13.9511  13.9539  13.9622  13.9751
    13.9757  13.9919  14.0052  14.0073  14.0191  14.0285  14.0306  14.0404
    14.0461  14.0572  14.0651  14.0731  14.0799  14.0919  14.0940  14.1102
    14.1159  14.1181  14.1242  14.1338  14.1437  14.1627  14.1644  14.1724
    14.3103  14.3225  14.3329  14.3744  14.4026  14.4214  14.4464  14.4697
    14.5613  14.5858  14.6490  14.6703  14.6879  14.6963  14.7432  14.7873
    14.8468  14.8580  14.8895  14.9032  14.9065  14.9380  14.9440  14.9578
    14.9643  14.9686  14.9784  15.0012  15.0249  15.0308  15.0358  15.0759
    15.1873  15.2013  15.2351  15.2590  15.2840  15.2941  15.2995  15.3142
    15.3164  15.3273  15.3479  15.3557  15.3706  15.3739  15.3885  15.4067
    15.4110  15.4178  15.4331  15.4439  15.4539  15.4615  15.4728  15.4974
    15.5087  15.5129  15.5209  15.5365  15.5446  15.5791  15.5918  15.6028
    15.6122  15.6163  15.6263  15.6350  15.6507  15.6690  15.6745  15.6946
    15.7037  15.7147  15.7276  15.7565  15.7852  15.8112  15.8240  15.8535
    15.8659  15.8785  15.8834  15.9214  15.9635  15.9858  16.0112  16.0215
    16.0487  16.0638  16.0768  16.1005  16.1239  16.1470  16.1593  16.1724
    16.1809  16.1876  16.1967  16.2011  16.2123  16.2198  16.2336  16.2399
    16.2490  16.2727  16.2765  16.2838  16.2904  16.3001  16.3092  16.3139
    16.3349  16.3445  16.3580  16.3708  16.4060  16.4466  16.4671  16.4828
    16.4886  16.5006  16.5066  16.5179  16.5297  16.5379  16.5398  16.5606
    16.5679  16.5804  16.5898  16.5959  16.6061  16.6079  16.6177  16.6320
    16.6450  16.6481  16.6569  16.6716  16.6765  16.6815  16.6949  16.7001
    16.7054  16.7192  16.7322  16.7421  16.7486  16.7550  16.7637  16.7712
    16.7865  16.7961  16.8078  16.8190  16.8245  16.8357  16.8478  16.8750
    16.8897  16.9037  16.9119  16.9187  16.9249  16.9326  16.9389  16.9546
    16.9748  16.9939  16.9975  17.0070  17.0238  17.0278  17.0326  17.0488
    17.0518  17.0599  17.0714  17.0808  17.0846  17.0862  17.0938  17.1008
    17.1082  17.1135  17.1197  17.1280  17.1336  17.1391  17.1438  17.1593
    17.1679  17.1770  17.1842  17.1926  17.1984  17.2055  17.2125  17.2217
    17.2308  17.2347  17.2462  17.2522  17.2562  17.2685  17.2828  17.2956
    17.3674  17.3769  17.3854  17.3993  17.4328  17.4569  17.5261  17.5390
    17.5945  17.6004  17.6116  17.6323  17.6587  17.6694  17.6751  17.6788
    17.6823  17.6949  17.7044  17.7088  17.7133  17.7227  17.7285  17.7379
    17.7478  17.7500  17.7616  17.7683  17.7746  17.7866  17.8067  17.8119
    17.8441  17.8843  17.8945  17.9352  17.9357  17.9450  17.9618  17.9674
    17.9745  17.9899  18.0006  18.0312  18.0426  18.0470  18.0600  18.0711
    18.0911  18.0980  18.1187  18.1221  18.1614  18.1966  18.2160  18.2318
    18.2354  18.2598  18.2682  18.2966  18.3084  18.3561  18.3687  18.3798
    18.3935  18.4023  18.4117  18.4200  18.4270  18.4419  18.4470  18.4606
    18.4745  18.4877  18.4927  18.5039  18.5121  18.5381  18.5429  18.5566
    18.5611  18.5697  18.5781  18.5857  18.5983  18.6050  18.6147  18.6251

     highest occupied, lowest unoccupied level (ev):     7.6268    8.3782

!    total energy              =  -36980.91660089 Ry
     estimated scf accuracy    <       0.00000353 Ry

     The total energy is the sum of the following terms:
     one-electron contribution =  -18769.12879164 Ry
     hartree contribution      =   11376.27417889 Ry
     xc contribution           =   -9493.23163514 Ry
     ewald contribution        =  -20095.55685441 Ry
     Hubbard energy            =       0.72650141 Ry

     convergence has been achieved in  12 iterations

     Writing all to output data dir ./tmp_In0.0Ga1.0As0.25Sb0.75_cube_3x3x3.5/In0.0Ga1.0As0.25Sb0.75_cube_3x3x3.5.save/ :
     XML data file, charge density, pseudopotentials, collected wavefunctions

     init_run     :    239.77s CPU    242.47s WALL (       1 calls)
     electrons    :   8984.55s CPU   9005.76s WALL (       1 calls)

     Called by init_run:
     wfcinit      :    229.38s CPU    231.69s WALL (       1 calls)
     potinit      :      2.06s CPU      2.10s WALL (       1 calls)
     hinit0       :      1.75s CPU      1.78s WALL (       1 calls)

     Called by electrons:
     c_bands      :   8721.17s CPU   8741.25s WALL (      13 calls)
     sum_band     :    258.22s CPU    258.57s WALL (      13 calls)
     v_of_rho     :      3.37s CPU      3.49s WALL (      13 calls)
     mix_rho      :      0.80s CPU      0.80s WALL (      13 calls)

     Called by c_bands:
     init_us_2    :     33.28s CPU     33.85s WALL (      28 calls)
     cegterg      :   8353.04s CPU   8371.64s WALL (      13 calls)

     Called by *egterg:
     cdiaghg      :    732.12s CPU    732.91s WALL (     101 calls)
     h_psi        :   4973.48s CPU   4983.65s WALL (     103 calls)
     g_psi        :      4.31s CPU      4.31s WALL (      89 calls)

     Called by h_psi:
     h_psi:calbec :    884.74s CPU    884.90s WALL (     103 calls)
     vloc_psi     :    649.14s CPU    650.50s WALL (     103 calls)
     add_vuspsi   :    863.08s CPU    865.90s WALL (     103 calls)
     vhpsi        :   2568.15s CPU   2568.35s WALL (     103 calls)

     General routines
     calbec       :   1119.07s CPU   1119.25s WALL (     220 calls)
     fft          :      3.12s CPU      3.22s WALL (     131 calls)
     ffts         :      0.18s CPU      0.19s WALL (      13 calls)
     fftw         :    648.86s CPU    650.22s WALL (  161766 calls)

     Parallel routines

     Hubbard U routines
     new_ns       :     62.60s CPU     62.61s WALL (      13 calls)
     vhpsi        :   2568.15s CPU   2568.35s WALL (     103 calls)

     PWSCF        :      2h34m CPU      2h35m WALL


   This run was terminated on:  17: 7: 4  13Jun2025            

=------------------------------------------------------------------------------=
   JOB DONE.
=------------------------------------------------------------------------------=
