
     Program PWSCF v.7.3.1 starts on  8Apr2026 at  5:43:25 

     This program is part of the open-source Quantum ESPRESSO suite
     for quantum simulation of materials; please cite
         "P. Giannozzi et al., J. Phys.:Condens. Matter 21 395502 (2009);
         "P. Giannozzi et al., J. Phys.:Condens. Matter 29 465901 (2017);
         "P. Giannozzi et al., J. Chem. Phys. 152 154105 (2020);
          URL http://www.quantum-espresso.org", 
     in publications or presentations arising from this work. More details at
     http://www.quantum-espresso.org/quote

     Parallel version (MPI), running on   640 processors

     MPI processes distributed on     5 nodes
     424683 MiB available memory on the printing compute node when the environment starts

     Reading input from In1.0Ga0.0As0.75Sb0.25_cube_3x3x3.7.relax.in

     Current dimensions of program PWSCF are:
     Max number of different atomic species (ntypx) = 10
     Max number of k-points (npk) =  40000
     Max angular momentum in pseudopotentials (lmaxx) =  4

     gamma-point specific algorithms are used

     R & G space division:  proc/nbgrp/npool/nimage =     640
     WARNING: too many processors for an effective parallelization!
     wavefunctions fft division:  task group distribution
                                  #TG    x Z-proc =      16     40
     Subspace diagonalization in iterative solution of the eigenvalue problem:
     one sub-group per band group will be used
     custom distributed-memory algorithm (size of sub-group: 15* 15 procs)


     Parallelization info
     --------------------
     sticks:   dense  smooth     PW     G-vecs:    dense   smooth      PW
     Min          72      72     18                12044    12044    1498
     Max          74      74     20                12106    12106    1524
     Sum       47297   47297  11825              7736037  7736037  967067

     Using Pencil Decomposition



     bravais-lattice index     =            1
     lattice parameter (alat)  =      35.1853  a.u.
     unit-cell volume          =   43559.5242 (a.u.)^3
     number of atoms/cell      =          216
     number of atomic types    =            4
     number of electrons       =      3024.00
     number of Kohn-Sham states=         1512
     kinetic-energy cutoff     =     120.0000  Ry
     charge density cutoff     =     480.0000  Ry
     scf convergence threshold =      1.0E-05
     mixing beta               =       0.6500
     number of iterations used =            8  plain     mixing
     energy convergence thresh.=      1.0E-04
     force convergence thresh. =      4.5E-04
     press convergence thresh. =      5.0E-01
     Exchange-correlation= PBE
                           (   1   4   3   4   0   0   0)
     nstep                     =           50

     Hubbard projectors: atomic
     Hubbard parameters of DFT+U (Dudarev formulation) in eV:
     U(As-4p) =  3.2600
     U(Ga-4p) = -3.2650
     U(In-5p) = -0.9725
     U(Sb-5p) =  3.1600

     Internal variables: lda_plus_u =T, lda_plus_u_kind = 0

     celldm(1)=  35.185282  celldm(2)=   0.000000  celldm(3)=   0.000000
     celldm(4)=   0.000000  celldm(5)=   0.000000  celldm(6)=   0.000000

     crystal axes: (cart. coord. in units of alat)
               a(1) = (   1.000000   0.000000   0.000000 )  
               a(2) = (   0.000000   1.000000   0.000000 )  
               a(3) = (   0.000000   0.000000   1.000000 )  

     reciprocal axes: (cart. coord. in units 2 pi/alat)
               b(1) = (  1.000000  0.000000  0.000000 )  
               b(2) = (  0.000000  1.000000  0.000000 )  
               b(3) = (  0.000000  0.000000  1.000000 )  


     PseudoPot. # 1 for As read from file:
     /work/i254/i254/gentles/data/pseudos/As.pbe.NC-SR.standard.v0.5.UPF
     MD5 check sum: bfe1a874457ce592347346129958e7cf
     Pseudo is Norm-conserving + core correction, Zval = 15.0
     Generated using ONCVPSP code by D. R. Hamann
     Using radial grid of 1358 points,  6 beta functions with: 
                l(1) =   0
                l(2) =   0
                l(3) =   1
                l(4) =   1
                l(5) =   2
                l(6) =   2

     PseudoPot. # 2 for Ga read from file:
     /work/i254/i254/gentles/data/pseudos/Ga.pbe.NC-SR.standard.v0.5.UPF
     MD5 check sum: 2bb81bf6f0a8d9832cf3329850435ecf
     Pseudo is Norm-conserving + core correction, Zval = 13.0
     Generated using ONCVPSP code by D. R. Hamann
     Using radial grid of 1902 points,  6 beta functions with: 
                l(1) =   0
                l(2) =   0
                l(3) =   1
                l(4) =   1
                l(5) =   2
                l(6) =   2

     PseudoPot. # 3 for In read from file:
     /work/i254/i254/gentles/data/pseudos/In.pbe.NC-SR.standard.v0.5.UPF
     MD5 check sum: 835f4bf908c982ff75c88e16816a8d7f
     Pseudo is Norm-conserving + core correction, Zval = 13.0
     Generated using ONCVPSP code by D. R. Hamann
     Using radial grid of 1964 points,  6 beta functions with: 
                l(1) =   0
                l(2) =   0
                l(3) =   1
                l(4) =   1
                l(5) =   2
                l(6) =   2

     PseudoPot. # 4 for Sb read from file:
     /work/i254/i254/gentles/data/pseudos/Sb.pbe.NC-SR.standard.v0.5.UPF
     MD5 check sum: 127f69b6101c45666faeae1b5d611565
     Pseudo is Norm-conserving + core correction, Zval = 15.0
     Generated using ONCVPSP code by D. R. Hamann
     Using radial grid of 1434 points,  6 beta functions with: 
                l(1) =   0
                l(2) =   0
                l(3) =   1
                l(4) =   1
                l(5) =   2
                l(6) =   2

     atomic species   valence    mass     pseudopotential
     As               15.00    74.92160     As( 1.00)
     Ga               13.00    69.72300     Ga( 1.00)
     In               13.00   114.81800     In( 1.00)
     Sb               15.00   121.76000     Sb( 1.00)

     No symmetry found



   Cartesian axes

     site n.     atom                  positions (alat units)
         1        In     tau(   1) = (   0.0000000   0.0000000   0.0000000  )
         2        In     tau(   2) = (   0.0000000   0.1666670   0.1666670  )
         3        In     tau(   3) = (   0.1666670   0.0000000   0.1666670  )
         4        In     tau(   4) = (   0.1666670   0.1666670   0.0000000  )
         5        Sb     tau(   5) = (   0.0833330   0.0833330   0.0833330  )
         6        As     tau(   6) = (   0.0833330   0.2500000   0.2500000  )
         7        As     tau(   7) = (   0.2500000   0.0833330   0.2500000  )
         8        Sb     tau(   8) = (   0.2500000   0.2500000   0.0833330  )
         9        In     tau(   9) = (   0.0000000   0.0000000   0.3333330  )
        10        In     tau(  10) = (   0.0000000   0.1666670   0.5000000  )
        11        In     tau(  11) = (   0.1666670   0.0000000   0.5000000  )
        12        In     tau(  12) = (   0.1666670   0.1666670   0.3333330  )
        13        Sb     tau(  13) = (   0.0833330   0.0833330   0.4166670  )
        14        As     tau(  14) = (   0.0833330   0.2500000   0.5833330  )
        15        As     tau(  15) = (   0.2500000   0.0833330   0.5833330  )
        16        As     tau(  16) = (   0.2500000   0.2500000   0.4166670  )
        17        In     tau(  17) = (   0.0000000   0.0000000   0.6666670  )
        18        In     tau(  18) = (   0.0000000   0.1666670   0.8333330  )
        19        In     tau(  19) = (   0.1666670   0.0000000   0.8333330  )
        20        In     tau(  20) = (   0.1666670   0.1666670   0.6666670  )
        21        As     tau(  21) = (   0.0833330   0.0833330   0.7500000  )
        22        Sb     tau(  22) = (   0.0833330   0.2500000   0.9166670  )
        23        As     tau(  23) = (   0.2500000   0.0833330   0.9166670  )
        24        Sb     tau(  24) = (   0.2500000   0.2500000   0.7500000  )
        25        In     tau(  25) = (   0.0000000   0.3333330   0.0000000  )
        26        In     tau(  26) = (   0.0000000   0.5000000   0.1666670  )
        27        In     tau(  27) = (   0.1666670   0.3333330   0.1666670  )
        28        In     tau(  28) = (   0.1666670   0.5000000   0.0000000  )
        29        As     tau(  29) = (   0.0833330   0.4166670   0.0833330  )
        30        As     tau(  30) = (   0.0833330   0.5833330   0.2500000  )
        31        As     tau(  31) = (   0.2500000   0.4166670   0.2500000  )
        32        Sb     tau(  32) = (   0.2500000   0.5833330   0.0833330  )
        33        In     tau(  33) = (   0.0000000   0.3333330   0.3333330  )
        34        In     tau(  34) = (   0.0000000   0.5000000   0.5000000  )
        35        In     tau(  35) = (   0.1666670   0.3333330   0.5000000  )
        36        In     tau(  36) = (   0.1666670   0.5000000   0.3333330  )
        37        As     tau(  37) = (   0.0833330   0.4166670   0.4166670  )
        38        As     tau(  38) = (   0.0833330   0.5833330   0.5833330  )
        39        As     tau(  39) = (   0.2500000   0.4166670   0.5833330  )
        40        As     tau(  40) = (   0.2500000   0.5833330   0.4166670  )
        41        In     tau(  41) = (   0.0000000   0.3333330   0.6666670  )
        42        In     tau(  42) = (   0.0000000   0.5000000   0.8333330  )
        43        In     tau(  43) = (   0.1666670   0.3333330   0.8333330  )
        44        In     tau(  44) = (   0.1666670   0.5000000   0.6666670  )
        45        Sb     tau(  45) = (   0.0833330   0.4166670   0.7500000  )
        46        Sb     tau(  46) = (   0.0833330   0.5833330   0.9166670  )
        47        Sb     tau(  47) = (   0.2500000   0.4166670   0.9166670  )
        48        Sb     tau(  48) = (   0.2500000   0.5833330   0.7500000  )
        49        In     tau(  49) = (   0.0000000   0.6666670   0.0000000  )
        50        In     tau(  50) = (   0.0000000   0.8333330   0.1666670  )
        51        In     tau(  51) = (   0.1666670   0.6666670   0.1666670  )
        52        In     tau(  52) = (   0.1666670   0.8333330   0.0000000  )
        53        As     tau(  53) = (   0.0833330   0.7500000   0.0833330  )
        54        As     tau(  54) = (   0.0833330   0.9166670   0.2500000  )
        55        Sb     tau(  55) = (   0.2500000   0.7500000   0.2500000  )
        56        As     tau(  56) = (   0.2500000   0.9166670   0.0833330  )
        57        In     tau(  57) = (   0.0000000   0.6666670   0.3333330  )
        58        In     tau(  58) = (   0.0000000   0.8333330   0.5000000  )
        59        In     tau(  59) = (   0.1666670   0.6666670   0.5000000  )
        60        In     tau(  60) = (   0.1666670   0.8333330   0.3333330  )
        61        As     tau(  61) = (   0.0833330   0.7500000   0.4166670  )
        62        As     tau(  62) = (   0.0833330   0.9166670   0.5833330  )
        63        As     tau(  63) = (   0.2500000   0.7500000   0.5833330  )
        64        As     tau(  64) = (   0.2500000   0.9166670   0.4166670  )
        65        In     tau(  65) = (   0.0000000   0.6666670   0.6666670  )
        66        In     tau(  66) = (   0.0000000   0.8333330   0.8333330  )
        67        In     tau(  67) = (   0.1666670   0.6666670   0.8333330  )
        68        In     tau(  68) = (   0.1666670   0.8333330   0.6666670  )
        69        Sb     tau(  69) = (   0.0833330   0.7500000   0.7500000  )
        70        As     tau(  70) = (   0.0833330   0.9166670   0.9166670  )
        71        As     tau(  71) = (   0.2500000   0.7500000   0.9166670  )
        72        As     tau(  72) = (   0.2500000   0.9166670   0.7500000  )
        73        In     tau(  73) = (   0.3333330   0.0000000   0.0000000  )
        74        In     tau(  74) = (   0.3333330   0.1666670   0.1666670  )
        75        In     tau(  75) = (   0.5000000   0.0000000   0.1666670  )
        76        In     tau(  76) = (   0.5000000   0.1666670   0.0000000  )
        77        As     tau(  77) = (   0.4166670   0.0833330   0.0833330  )
        78        As     tau(  78) = (   0.4166670   0.2500000   0.2500000  )
        79        Sb     tau(  79) = (   0.5833330   0.0833330   0.2500000  )
        80        As     tau(  80) = (   0.5833330   0.2500000   0.0833330  )
        81        In     tau(  81) = (   0.3333330   0.0000000   0.3333330  )
        82        In     tau(  82) = (   0.3333330   0.1666670   0.5000000  )
        83        In     tau(  83) = (   0.5000000   0.0000000   0.5000000  )
        84        In     tau(  84) = (   0.5000000   0.1666670   0.3333330  )
        85        As     tau(  85) = (   0.4166670   0.0833330   0.4166670  )
        86        As     tau(  86) = (   0.4166670   0.2500000   0.5833330  )
        87        As     tau(  87) = (   0.5833330   0.0833330   0.5833330  )
        88        As     tau(  88) = (   0.5833330   0.2500000   0.4166670  )
        89        In     tau(  89) = (   0.3333330   0.0000000   0.6666670  )
        90        In     tau(  90) = (   0.3333330   0.1666670   0.8333330  )
        91        In     tau(  91) = (   0.5000000   0.0000000   0.8333330  )
        92        In     tau(  92) = (   0.5000000   0.1666670   0.6666670  )
        93        As     tau(  93) = (   0.4166670   0.0833330   0.7500000  )
        94        Sb     tau(  94) = (   0.4166670   0.2500000   0.9166670  )
        95        As     tau(  95) = (   0.5833330   0.0833330   0.9166670  )
        96        As     tau(  96) = (   0.5833330   0.2500000   0.7500000  )
        97        In     tau(  97) = (   0.3333330   0.3333330   0.0000000  )
        98        In     tau(  98) = (   0.3333330   0.5000000   0.1666670  )
        99        In     tau(  99) = (   0.5000000   0.3333330   0.1666670  )
       100        In     tau( 100) = (   0.5000000   0.5000000   0.0000000  )
       101        As     tau( 101) = (   0.4166670   0.4166670   0.0833330  )
       102        As     tau( 102) = (   0.4166670   0.5833330   0.2500000  )
       103        As     tau( 103) = (   0.5833330   0.4166670   0.2500000  )
       104        As     tau( 104) = (   0.5833330   0.5833330   0.0833330  )
       105        In     tau( 105) = (   0.3333330   0.3333330   0.3333330  )
       106        In     tau( 106) = (   0.3333330   0.5000000   0.5000000  )
       107        In     tau( 107) = (   0.5000000   0.3333330   0.5000000  )
       108        In     tau( 108) = (   0.5000000   0.5000000   0.3333330  )
       109        Sb     tau( 109) = (   0.4166670   0.4166670   0.4166670  )
       110        As     tau( 110) = (   0.4166670   0.5833330   0.5833330  )
       111        As     tau( 111) = (   0.5833330   0.4166670   0.5833330  )
       112        As     tau( 112) = (   0.5833330   0.5833330   0.4166670  )
       113        In     tau( 113) = (   0.3333330   0.3333330   0.6666670  )
       114        In     tau( 114) = (   0.3333330   0.5000000   0.8333330  )
       115        In     tau( 115) = (   0.5000000   0.3333330   0.8333330  )
       116        In     tau( 116) = (   0.5000000   0.5000000   0.6666670  )
       117        Sb     tau( 117) = (   0.4166670   0.4166670   0.7500000  )
       118        Sb     tau( 118) = (   0.4166670   0.5833330   0.9166670  )
       119        As     tau( 119) = (   0.5833330   0.4166670   0.9166670  )
       120        As     tau( 120) = (   0.5833330   0.5833330   0.7500000  )
       121        In     tau( 121) = (   0.3333330   0.6666670   0.0000000  )
       122        In     tau( 122) = (   0.3333330   0.8333330   0.1666670  )
       123        In     tau( 123) = (   0.5000000   0.6666670   0.1666670  )
       124        In     tau( 124) = (   0.5000000   0.8333330   0.0000000  )
       125        As     tau( 125) = (   0.4166670   0.7500000   0.0833330  )
       126        As     tau( 126) = (   0.4166670   0.9166670   0.2500000  )
       127        Sb     tau( 127) = (   0.5833330   0.7500000   0.2500000  )
       128        As     tau( 128) = (   0.5833330   0.9166670   0.0833330  )
       129        In     tau( 129) = (   0.3333330   0.6666670   0.3333330  )
       130        In     tau( 130) = (   0.3333330   0.8333330   0.5000000  )
       131        In     tau( 131) = (   0.5000000   0.6666670   0.5000000  )
       132        In     tau( 132) = (   0.5000000   0.8333330   0.3333330  )
       133        As     tau( 133) = (   0.4166670   0.7500000   0.4166670  )
       134        Sb     tau( 134) = (   0.4166670   0.9166670   0.5833330  )
       135        As     tau( 135) = (   0.5833330   0.7500000   0.5833330  )
       136        As     tau( 136) = (   0.5833330   0.9166670   0.4166670  )
       137        In     tau( 137) = (   0.3333330   0.6666670   0.6666670  )
       138        In     tau( 138) = (   0.3333330   0.8333330   0.8333330  )
       139        In     tau( 139) = (   0.5000000   0.6666670   0.8333330  )
       140        In     tau( 140) = (   0.5000000   0.8333330   0.6666670  )
       141        As     tau( 141) = (   0.4166670   0.7500000   0.7500000  )
       142        As     tau( 142) = (   0.4166670   0.9166670   0.9166670  )
       143        As     tau( 143) = (   0.5833330   0.7500000   0.9166670  )
       144        As     tau( 144) = (   0.5833330   0.9166670   0.7500000  )
       145        In     tau( 145) = (   0.6666670   0.0000000   0.0000000  )
       146        In     tau( 146) = (   0.6666670   0.1666670   0.1666670  )
       147        In     tau( 147) = (   0.8333330   0.0000000   0.1666670  )
       148        In     tau( 148) = (   0.8333330   0.1666670   0.0000000  )
       149        As     tau( 149) = (   0.7500000   0.0833330   0.0833330  )
       150        As     tau( 150) = (   0.7500000   0.2500000   0.2500000  )
       151        As     tau( 151) = (   0.9166670   0.0833330   0.2500000  )
       152        As     tau( 152) = (   0.9166670   0.2500000   0.0833330  )
       153        In     tau( 153) = (   0.6666670   0.0000000   0.3333330  )
       154        In     tau( 154) = (   0.6666670   0.1666670   0.5000000  )
       155        In     tau( 155) = (   0.8333330   0.0000000   0.5000000  )
       156        In     tau( 156) = (   0.8333330   0.1666670   0.3333330  )
       157        As     tau( 157) = (   0.7500000   0.0833330   0.4166670  )
       158        Sb     tau( 158) = (   0.7500000   0.2500000   0.5833330  )
       159        As     tau( 159) = (   0.9166670   0.0833330   0.5833330  )
       160        As     tau( 160) = (   0.9166670   0.2500000   0.4166670  )
       161        In     tau( 161) = (   0.6666670   0.0000000   0.6666670  )
       162        In     tau( 162) = (   0.6666670   0.1666670   0.8333330  )
       163        In     tau( 163) = (   0.8333330   0.0000000   0.8333330  )
       164        In     tau( 164) = (   0.8333330   0.1666670   0.6666670  )
       165        As     tau( 165) = (   0.7500000   0.0833330   0.7500000  )
       166        As     tau( 166) = (   0.7500000   0.2500000   0.9166670  )
       167        As     tau( 167) = (   0.9166670   0.0833330   0.9166670  )
       168        As     tau( 168) = (   0.9166670   0.2500000   0.7500000  )
       169        In     tau( 169) = (   0.6666670   0.3333330   0.0000000  )
       170        In     tau( 170) = (   0.6666670   0.5000000   0.1666670  )
       171        In     tau( 171) = (   0.8333330   0.3333330   0.1666670  )
       172        In     tau( 172) = (   0.8333330   0.5000000   0.0000000  )
       173        As     tau( 173) = (   0.7500000   0.4166670   0.0833330  )
       174        As     tau( 174) = (   0.7500000   0.5833330   0.2500000  )
       175        As     tau( 175) = (   0.9166670   0.4166670   0.2500000  )
       176        As     tau( 176) = (   0.9166670   0.5833330   0.0833330  )
       177        In     tau( 177) = (   0.6666670   0.3333330   0.3333330  )
       178        In     tau( 178) = (   0.6666670   0.5000000   0.5000000  )
       179        In     tau( 179) = (   0.8333330   0.3333330   0.5000000  )
       180        In     tau( 180) = (   0.8333330   0.5000000   0.3333330  )
       181        As     tau( 181) = (   0.7500000   0.4166670   0.4166670  )
       182        As     tau( 182) = (   0.7500000   0.5833330   0.5833330  )
       183        As     tau( 183) = (   0.9166670   0.4166670   0.5833330  )
       184        Sb     tau( 184) = (   0.9166670   0.5833330   0.4166670  )
       185        In     tau( 185) = (   0.6666670   0.3333330   0.6666670  )
       186        In     tau( 186) = (   0.6666670   0.5000000   0.8333330  )
       187        In     tau( 187) = (   0.8333330   0.3333330   0.8333330  )
       188        In     tau( 188) = (   0.8333330   0.5000000   0.6666670  )
       189        Sb     tau( 189) = (   0.7500000   0.4166670   0.7500000  )
       190        As     tau( 190) = (   0.7500000   0.5833330   0.9166670  )
       191        As     tau( 191) = (   0.9166670   0.4166670   0.9166670  )
       192        As     tau( 192) = (   0.9166670   0.5833330   0.7500000  )
       193        In     tau( 193) = (   0.6666670   0.6666670   0.0000000  )
       194        In     tau( 194) = (   0.6666670   0.8333330   0.1666670  )
       195        In     tau( 195) = (   0.8333330   0.6666670   0.1666670  )
       196        In     tau( 196) = (   0.8333330   0.8333330   0.0000000  )
       197        Sb     tau( 197) = (   0.7500000   0.7500000   0.0833330  )
       198        As     tau( 198) = (   0.7500000   0.9166670   0.2500000  )
       199        As     tau( 199) = (   0.9166670   0.7500000   0.2500000  )
       200        Sb     tau( 200) = (   0.9166670   0.9166670   0.0833330  )
       201        In     tau( 201) = (   0.6666670   0.6666670   0.3333330  )
       202        In     tau( 202) = (   0.6666670   0.8333330   0.5000000  )
       203        In     tau( 203) = (   0.8333330   0.6666670   0.5000000  )
       204        In     tau( 204) = (   0.8333330   0.8333330   0.3333330  )
       205        As     tau( 205) = (   0.7500000   0.7500000   0.4166670  )
       206        Sb     tau( 206) = (   0.7500000   0.9166670   0.5833330  )
       207        Sb     tau( 207) = (   0.9166670   0.7500000   0.5833330  )
       208        Sb     tau( 208) = (   0.9166670   0.9166670   0.4166670  )
       209        In     tau( 209) = (   0.6666670   0.6666670   0.6666670  )
       210        In     tau( 210) = (   0.6666670   0.8333330   0.8333330  )
       211        In     tau( 211) = (   0.8333330   0.6666670   0.8333330  )
       212        In     tau( 212) = (   0.8333330   0.8333330   0.6666670  )
       213        As     tau( 213) = (   0.7500000   0.7500000   0.7500000  )
       214        As     tau( 214) = (   0.7500000   0.9166670   0.9166670  )
       215        As     tau( 215) = (   0.9166670   0.7500000   0.9166670  )
       216        As     tau( 216) = (   0.9166670   0.9166670   0.7500000  )

     number of k points=     1
                       cart. coord. in units 2pi/alat
        k(    1) = (   0.0000000   0.0000000   0.0000000), wk =   2.0000000

     Dense  grid:  3868019 G-vectors     FFT dimensions: ( 250, 250, 250)

     Estimated max dynamical RAM per process >     222.40 MB

     Estimated total dynamical RAM >     139.00 GB

     Initial potential from superposition of free atoms

     starting charge    3023.5448, renormalised to    3024.0000

     STARTING HUBBARD OCCUPATIONS:

     =================== HUBBARD OCCUPATIONS ===================
     ------------------------ ATOM    1 ------------------------
     Tr[ns(  1)] =   1.00000
     eigenvalues:
       0.167  0.167  0.167
     eigenvectors (columns):
       1.000  0.000  0.000
       0.000  1.000  0.000
       0.000  0.000  1.000
     occupation matrix ns (before diag.):
       0.167  0.000  0.000
       0.000  0.167  0.000
       0.000  0.000  0.167
     ------------------------ ATOM    2 ------------------------
     Tr[ns(  2)] =   1.00000
     eigenvalues:
       0.167  0.167  0.167
     eigenvectors (columns):
       1.000  0.000  0.000
       0.000  1.000  0.000
       0.000  0.000  1.000
     occupation matrix ns (before diag.):
       0.167  0.000  0.000
       0.000  0.167  0.000
       0.000  0.000  0.167
     ------------------------ ATOM    3 ------------------------
     Tr[ns(  3)] =   1.00000
     eigenvalues:
       0.167  0.167  0.167
     eigenvectors (columns):
       1.000  0.000  0.000
       0.000  1.000  0.000
       0.000  0.000  1.000
     occupation matrix ns (before diag.):
       0.167  0.000  0.000
       0.000  0.167  0.000
       0.000  0.000  0.167
     ------------------------ ATOM    4 ------------------------
     Tr[ns(  4)] =   1.00000
     eigenvalues:
       0.167  0.167  0.167
     eigenvectors (columns):
       1.000  0.000  0.000
       0.000  1.000  0.000
       0.000  0.000  1.000
     occupation matrix ns (before diag.):
       0.167  0.000  0.000
       0.000  0.167  0.000
       0.000  0.000  0.167
     ------------------------ ATOM    5 ------------------------
     Tr[ns(  5)] =   3.00000
     eigenvalues:
       0.500  0.500  0.500
     eigenvectors (columns):
       1.000  0.000  0.000
       0.000  1.000  0.000
       0.000  0.000  1.000
     occupation matrix ns (before diag.):
       0.500  0.000  0.000
       0.000  0.500  0.000
       0.000  0.000  0.500
     ------------------------ ATOM    6 ------------------------
     Tr[ns(  6)] =   3.00000
     eigenvalues:
       0.500  0.500  0.500
     eigenvectors (columns):
       1.000  0.000  0.000
       0.000  1.000  0.000
       0.000  0.000  1.000
     occupation matrix ns (before diag.):
       0.500  0.000  0.000
       0.000  0.500  0.000
       0.000  0.000  0.500
     ------------------------ ATOM    7 ------------------------
     Tr[ns(  7)] =   3.00000
     eigenvalues:
       0.500  0.500  0.500
     eigenvectors (columns):
       1.000  0.000  0.000
       0.000  1.000  0.000
       0.000  0.000  1.000
     occupation matrix ns (before diag.):
       0.500  0.000  0.000
       0.000  0.500  0.000
       0.000  0.000  0.500
     ------------------------ ATOM    8 ------------------------
     Tr[ns(  8)] =   3.00000
     eigenvalues:
       0.500  0.500  0.500
     eigenvectors (columns):
       1.000  0.000  0.000
       0.000  1.000  0.000
       0.000  0.000  1.000
     occupation matrix ns (before diag.):
       0.500  0.000  0.000
       0.000  0.500  0.000
       0.000  0.000  0.500
     ------------------------ ATOM    9 ------------------------
     Tr[ns(  9)] =   1.00000
     eigenvalues:
       0.167  0.167  0.167
     eigenvectors (columns):
       1.000  0.000  0.000
       0.000  1.000  0.000
       0.000  0.000  1.000
     occupation matrix ns (before diag.):
       0.167  0.000  0.000
       0.000  0.167  0.000
       0.000  0.000  0.167
     ------------------------ ATOM   10 ------------------------
     Tr[ns( 10)] =   1.00000
     eigenvalues:
       0.167  0.167  0.167
     eigenvectors (columns):
       1.000  0.000  0.000
       0.000  1.000  0.000
       0.000  0.000  1.000
     occupation matrix ns (before diag.):
       0.167  0.000  0.000
       0.000  0.167  0.000
       0.000  0.000  0.167
     ------------------------ ATOM   11 ------------------------
     Tr[ns( 11)] =   1.00000
     eigenvalues:
       0.167  0.167  0.167
     eigenvectors (columns):
       1.000  0.000  0.000
       0.000  1.000  0.000
       0.000  0.000  1.000
     occupation matrix ns (before diag.):
       0.167  0.000  0.000
       0.000  0.167  0.000
       0.000  0.000  0.167
     ------------------------ ATOM   12 ------------------------
     Tr[ns( 12)] =   1.00000
     eigenvalues:
       0.167  0.167  0.167
     eigenvectors (columns):
       1.000  0.000  0.000
       0.000  1.000  0.000
       0.000  0.000  1.000
     occupation matrix ns (before diag.):
       0.167  0.000  0.000
       0.000  0.167  0.000
       0.000  0.000  0.167
     ------------------------ ATOM   13 ------------------------
     Tr[ns( 13)] =   3.00000
     eigenvalues:
       0.500  0.500  0.500
     eigenvectors (columns):
       1.000  0.000  0.000
       0.000  1.000  0.000
       0.000  0.000  1.000
     occupation matrix ns (before diag.):
       0.500  0.000  0.000
       0.000  0.500  0.000
       0.000  0.000  0.500
     ------------------------ ATOM   14 ------------------------
     Tr[ns( 14)] =   3.00000
     eigenvalues:
       0.500  0.500  0.500
     eigenvectors (columns):
       1.000  0.000  0.000
       0.000  1.000  0.000
       0.000  0.000  1.000
     occupation matrix ns (before diag.):
       0.500  0.000  0.000
       0.000  0.500  0.000
       0.000  0.000  0.500
     ------------------------ ATOM   15 ------------------------
     Tr[ns( 15)] =   3.00000
     eigenvalues:
       0.500  0.500  0.500
     eigenvectors (columns):
       1.000  0.000  0.000
       0.000  1.000  0.000
       0.000  0.000  1.000
     occupation matrix ns (before diag.):
       0.500  0.000  0.000
       0.000  0.500  0.000
       0.000  0.000  0.500
     ------------------------ ATOM   16 ------------------------
     Tr[ns( 16)] =   3.00000
     eigenvalues:
       0.500  0.500  0.500
     eigenvectors (columns):
       1.000  0.000  0.000
       0.000  1.000  0.000
       0.000  0.000  1.000
     occupation matrix ns (before diag.):
       0.500  0.000  0.000
       0.000  0.500  0.000
       0.000  0.000  0.500
     ------------------------ ATOM   17 ------------------------
     Tr[ns( 17)] =   1.00000
     eigenvalues:
       0.167  0.167  0.167
     eigenvectors (columns):
       1.000  0.000  0.000
       0.000  1.000  0.000
       0.000  0.000  1.000
     occupation matrix ns (before diag.):
       0.167  0.000  0.000
       0.000  0.167  0.000
       0.000  0.000  0.167
     ------------------------ ATOM   18 ------------------------
     Tr[ns( 18)] =   1.00000
     eigenvalues:
       0.167  0.167  0.167
     eigenvectors (columns):
       1.000  0.000  0.000
       0.000  1.000  0.000
       0.000  0.000  1.000
     occupation matrix ns (before diag.):
       0.167  0.000  0.000
       0.000  0.167  0.000
       0.000  0.000  0.167
     ------------------------ ATOM   19 ------------------------
     Tr[ns( 19)] =   1.00000
     eigenvalues:
       0.167  0.167  0.167
     eigenvectors (columns):
       1.000  0.000  0.000
       0.000  1.000  0.000
       0.000  0.000  1.000
     occupation matrix ns (before diag.):
       0.167  0.000  0.000
       0.000  0.167  0.000
       0.000  0.000  0.167
     ------------------------ ATOM   20 ------------------------
     Tr[ns( 20)] =   1.00000
     eigenvalues:
       0.167  0.167  0.167
     eigenvectors (columns):
       1.000  0.000  0.000
       0.000  1.000  0.000
       0.000  0.000  1.000
     occupation matrix ns (before diag.):
       0.167  0.000  0.000
       0.000  0.167  0.000
       0.000  0.000  0.167
     ------------------------ ATOM   21 ------------------------
     Tr[ns( 21)] =   3.00000
     eigenvalues:
       0.500  0.500  0.500
     eigenvectors (columns):
       1.000  0.000  0.000
       0.000  1.000  0.000
       0.000  0.000  1.000
     occupation matrix ns (before diag.):
       0.500  0.000  0.000
       0.000  0.500  0.000
       0.000  0.000  0.500
     ------------------------ ATOM   22 ------------------------
     Tr[ns( 22)] =   3.00000
     eigenvalues:
       0.500  0.500  0.500
     eigenvectors (columns):
       1.000  0.000  0.000
       0.000  1.000  0.000
       0.000  0.000  1.000
     occupation matrix ns (before diag.):
       0.500  0.000  0.000
       0.000  0.500  0.000
       0.000  0.000  0.500
     ------------------------ ATOM   23 ------------------------
     Tr[ns( 23)] =   3.00000
     eigenvalues:
       0.500  0.500  0.500
     eigenvectors (columns):
       1.000  0.000  0.000
       0.000  1.000  0.000
       0.000  0.000  1.000
     occupation matrix ns (before diag.):
       0.500  0.000  0.000
       0.000  0.500  0.000
       0.000  0.000  0.500
     ------------------------ ATOM   24 ------------------------
     Tr[ns( 24)] =   3.00000
     eigenvalues:
       0.500  0.500  0.500
     eigenvectors (columns):
       1.000  0.000  0.000
       0.000  1.000  0.000
       0.000  0.000  1.000
     occupation matrix ns (before diag.):
       0.500  0.000  0.000
       0.000  0.500  0.000
       0.000  0.000  0.500
     ------------------------ ATOM   25 ------------------------
     Tr[ns( 25)] =   1.00000
     eigenvalues:
       0.167  0.167  0.167
     eigenvectors (columns):
       1.000  0.000  0.000
       0.000  1.000  0.000
       0.000  0.000  1.000
     occupation matrix ns (before diag.):
       0.167  0.000  0.000
       0.000  0.167  0.000
       0.000  0.000  0.167
     ------------------------ ATOM   26 ------------------------
     Tr[ns( 26)] =   1.00000
     eigenvalues:
       0.167  0.167  0.167
     eigenvectors (columns):
       1.000  0.000  0.000
       0.000  1.000  0.000
       0.000  0.000  1.000
     occupation matrix ns (before diag.):
       0.167  0.000  0.000
       0.000  0.167  0.000
       0.000  0.000  0.167
     ------------------------ ATOM   27 ------------------------
     Tr[ns( 27)] =   1.00000
     eigenvalues:
       0.167  0.167  0.167
     eigenvectors (columns):
       1.000  0.000  0.000
       0.000  1.000  0.000
       0.000  0.000  1.000
     occupation matrix ns (before diag.):
       0.167  0.000  0.000
       0.000  0.167  0.000
       0.000  0.000  0.167
     ------------------------ ATOM   28 ------------------------
     Tr[ns( 28)] =   1.00000
     eigenvalues:
       0.167  0.167  0.167
     eigenvectors (columns):
       1.000  0.000  0.000
       0.000  1.000  0.000
       0.000  0.000  1.000
     occupation matrix ns (before diag.):
       0.167  0.000  0.000
       0.000  0.167  0.000
       0.000  0.000  0.167
     ------------------------ ATOM   29 ------------------------
     Tr[ns( 29)] =   3.00000
     eigenvalues:
       0.500  0.500  0.500
     eigenvectors (columns):
       1.000  0.000  0.000
       0.000  1.000  0.000
       0.000  0.000  1.000
     occupation matrix ns (before diag.):
       0.500  0.000  0.000
       0.000  0.500  0.000
       0.000  0.000  0.500
     ------------------------ ATOM   30 ------------------------
     Tr[ns( 30)] =   3.00000
     eigenvalues:
       0.500  0.500  0.500
     eigenvectors (columns):
       1.000  0.000  0.000
       0.000  1.000  0.000
       0.000  0.000  1.000
     occupation matrix ns (before diag.):
       0.500  0.000  0.000
       0.000  0.500  0.000
       0.000  0.000  0.500
     ------------------------ ATOM   31 ------------------------
     Tr[ns( 31)] =   3.00000
     eigenvalues:
       0.500  0.500  0.500
     eigenvectors (columns):
       1.000  0.000  0.000
       0.000  1.000  0.000
       0.000  0.000  1.000
     occupation matrix ns (before diag.):
       0.500  0.000  0.000
       0.000  0.500  0.000
       0.000  0.000  0.500
     ------------------------ ATOM   32 ------------------------
     Tr[ns( 32)] =   3.00000
     eigenvalues:
       0.500  0.500  0.500
     eigenvectors (columns):
       1.000  0.000  0.000
       0.000  1.000  0.000
       0.000  0.000  1.000
     occupation matrix ns (before diag.):
       0.500  0.000  0.000
       0.000  0.500  0.000
       0.000  0.000  0.500
     ------------------------ ATOM   33 ------------------------
     Tr[ns( 33)] =   1.00000
     eigenvalues:
       0.167  0.167  0.167
     eigenvectors (columns):
       1.000  0.000  0.000
       0.000  1.000  0.000
       0.000  0.000  1.000
     occupation matrix ns (before diag.):
       0.167  0.000  0.000
       0.000  0.167  0.000
       0.000  0.000  0.167
     ------------------------ ATOM   34 ------------------------
     Tr[ns( 34)] =   1.00000
     eigenvalues:
       0.167  0.167  0.167
     eigenvectors (columns):
       1.000  0.000  0.000
       0.000  1.000  0.000
       0.000  0.000  1.000
     occupation matrix ns (before diag.):
       0.167  0.000  0.000
       0.000  0.167  0.000
       0.000  0.000  0.167
     ------------------------ ATOM   35 ------------------------
     Tr[ns( 35)] =   1.00000
     eigenvalues:
       0.167  0.167  0.167
     eigenvectors (columns):
       1.000  0.000  0.000
       0.000  1.000  0.000
       0.000  0.000  1.000
     occupation matrix ns (before diag.):
       0.167  0.000  0.000
       0.000  0.167  0.000
       0.000  0.000  0.167
     ------------------------ ATOM   36 ------------------------
     Tr[ns( 36)] =   1.00000
     eigenvalues:
       0.167  0.167  0.167
     eigenvectors (columns):
       1.000  0.000  0.000
       0.000  1.000  0.000
       0.000  0.000  1.000
     occupation matrix ns (before diag.):
       0.167  0.000  0.000
       0.000  0.167  0.000
       0.000  0.000  0.167
     ------------------------ ATOM   37 ------------------------
     Tr[ns( 37)] =   3.00000
     eigenvalues:
       0.500  0.500  0.500
     eigenvectors (columns):
       1.000  0.000  0.000
       0.000  1.000  0.000
       0.000  0.000  1.000
     occupation matrix ns (before diag.):
       0.500  0.000  0.000
       0.000  0.500  0.000
       0.000  0.000  0.500
     ------------------------ ATOM   38 ------------------------
     Tr[ns( 38)] =   3.00000
     eigenvalues:
       0.500  0.500  0.500
     eigenvectors (columns):
       1.000  0.000  0.000
       0.000  1.000  0.000
       0.000  0.000  1.000
     occupation matrix ns (before diag.):
       0.500  0.000  0.000
       0.000  0.500  0.000
       0.000  0.000  0.500
     ------------------------ ATOM   39 ------------------------
     Tr[ns( 39)] =   3.00000
     eigenvalues:
       0.500  0.500  0.500
     eigenvectors (columns):
       1.000  0.000  0.000
       0.000  1.000  0.000
       0.000  0.000  1.000
     occupation matrix ns (before diag.):
       0.500  0.000  0.000
       0.000  0.500  0.000
       0.000  0.000  0.500
     ------------------------ ATOM   40 ------------------------
     Tr[ns( 40)] =   3.00000
     eigenvalues:
       0.500  0.500  0.500
     eigenvectors (columns):
       1.000  0.000  0.000
       0.000  1.000  0.000
       0.000  0.000  1.000
     occupation matrix ns (before diag.):
       0.500  0.000  0.000
       0.000  0.500  0.000
       0.000  0.000  0.500
     ------------------------ ATOM   41 ------------------------
     Tr[ns( 41)] =   1.00000
     eigenvalues:
       0.167  0.167  0.167
     eigenvectors (columns):
       1.000  0.000  0.000
       0.000  1.000  0.000
       0.000  0.000  1.000
     occupation matrix ns (before diag.):
       0.167  0.000  0.000
       0.000  0.167  0.000
       0.000  0.000  0.167
     ------------------------ ATOM   42 ------------------------
     Tr[ns( 42)] =   1.00000
     eigenvalues:
       0.167  0.167  0.167
     eigenvectors (columns):
       1.000  0.000  0.000
       0.000  1.000  0.000
       0.000  0.000  1.000
     occupation matrix ns (before diag.):
       0.167  0.000  0.000
       0.000  0.167  0.000
       0.000  0.000  0.167
     ------------------------ ATOM   43 ------------------------
     Tr[ns( 43)] =   1.00000
     eigenvalues:
       0.167  0.167  0.167
     eigenvectors (columns):
       1.000  0.000  0.000
       0.000  1.000  0.000
       0.000  0.000  1.000
     occupation matrix ns (before diag.):
       0.167  0.000  0.000
       0.000  0.167  0.000
       0.000  0.000  0.167
     ------------------------ ATOM   44 ------------------------
     Tr[ns( 44)] =   1.00000
     eigenvalues:
       0.167  0.167  0.167
     eigenvectors (columns):
       1.000  0.000  0.000
       0.000  1.000  0.000
       0.000  0.000  1.000
     occupation matrix ns (before diag.):
       0.167  0.000  0.000
       0.000  0.167  0.000
       0.000  0.000  0.167
     ------------------------ ATOM   45 ------------------------
     Tr[ns( 45)] =   3.00000
     eigenvalues:
       0.500  0.500  0.500
     eigenvectors (columns):
       1.000  0.000  0.000
       0.000  1.000  0.000
       0.000  0.000  1.000
     occupation matrix ns (before diag.):
       0.500  0.000  0.000
       0.000  0.500  0.000
       0.000  0.000  0.500
     ------------------------ ATOM   46 ------------------------
     Tr[ns( 46)] =   3.00000
     eigenvalues:
       0.500  0.500  0.500
     eigenvectors (columns):
       1.000  0.000  0.000
       0.000  1.000  0.000
       0.000  0.000  1.000
     occupation matrix ns (before diag.):
       0.500  0.000  0.000
       0.000  0.500  0.000
       0.000  0.000  0.500
     ------------------------ ATOM   47 ------------------------
     Tr[ns( 47)] =   3.00000
     eigenvalues:
       0.500  0.500  0.500
     eigenvectors (columns):
       1.000  0.000  0.000
       0.000  1.000  0.000
       0.000  0.000  1.000
     occupation matrix ns (before diag.):
       0.500  0.000  0.000
       0.000  0.500  0.000
       0.000  0.000  0.500
     ------------------------ ATOM   48 ------------------------
     Tr[ns( 48)] =   3.00000
     eigenvalues:
       0.500  0.500  0.500
     eigenvectors (columns):
       1.000  0.000  0.000
       0.000  1.000  0.000
       0.000  0.000  1.000
     occupation matrix ns (before diag.):
       0.500  0.000  0.000
       0.000  0.500  0.000
       0.000  0.000  0.500
     ------------------------ ATOM   49 ------------------------
     Tr[ns( 49)] =   1.00000
     eigenvalues:
       0.167  0.167  0.167
     eigenvectors (columns):
       1.000  0.000  0.000
       0.000  1.000  0.000
       0.000  0.000  1.000
     occupation matrix ns (before diag.):
       0.167  0.000  0.000
       0.000  0.167  0.000
       0.000  0.000  0.167
     ------------------------ ATOM   50 ------------------------
     Tr[ns( 50)] =   1.00000
     eigenvalues:
       0.167  0.167  0.167
     eigenvectors (columns):
       1.000  0.000  0.000
       0.000  1.000  0.000
       0.000  0.000  1.000
     occupation matrix ns (before diag.):
       0.167  0.000  0.000
       0.000  0.167  0.000
       0.000  0.000  0.167
     ------------------------ ATOM   51 ------------------------
     Tr[ns( 51)] =   1.00000
     eigenvalues:
       0.167  0.167  0.167
     eigenvectors (columns):
       1.000  0.000  0.000
       0.000  1.000  0.000
       0.000  0.000  1.000
     occupation matrix ns (before diag.):
       0.167  0.000  0.000
       0.000  0.167  0.000
       0.000  0.000  0.167
     ------------------------ ATOM   52 ------------------------
     Tr[ns( 52)] =   1.00000
     eigenvalues:
       0.167  0.167  0.167
     eigenvectors (columns):
       1.000  0.000  0.000
       0.000  1.000  0.000
       0.000  0.000  1.000
     occupation matrix ns (before diag.):
       0.167  0.000  0.000
       0.000  0.167  0.000
       0.000  0.000  0.167
     ------------------------ ATOM   53 ------------------------
     Tr[ns( 53)] =   3.00000
     eigenvalues:
       0.500  0.500  0.500
     eigenvectors (columns):
       1.000  0.000  0.000
       0.000  1.000  0.000
       0.000  0.000  1.000
     occupation matrix ns (before diag.):
       0.500  0.000  0.000
       0.000  0.500  0.000
       0.000  0.000  0.500
     ------------------------ ATOM   54 ------------------------
     Tr[ns( 54)] =   3.00000
     eigenvalues:
       0.500  0.500  0.500
     eigenvectors (columns):
       1.000  0.000  0.000
       0.000  1.000  0.000
       0.000  0.000  1.000
     occupation matrix ns (before diag.):
       0.500  0.000  0.000
       0.000  0.500  0.000
       0.000  0.000  0.500
     ------------------------ ATOM   55 ------------------------
     Tr[ns( 55)] =   3.00000
     eigenvalues:
       0.500  0.500  0.500
     eigenvectors (columns):
       1.000  0.000  0.000
       0.000  1.000  0.000
       0.000  0.000  1.000
     occupation matrix ns (before diag.):
       0.500  0.000  0.000
       0.000  0.500  0.000
       0.000  0.000  0.500
     ------------------------ ATOM   56 ------------------------
     Tr[ns( 56)] =   3.00000
     eigenvalues:
       0.500  0.500  0.500
     eigenvectors (columns):
       1.000  0.000  0.000
       0.000  1.000  0.000
       0.000  0.000  1.000
     occupation matrix ns (before diag.):
       0.500  0.000  0.000
       0.000  0.500  0.000
       0.000  0.000  0.500
     ------------------------ ATOM   57 ------------------------
     Tr[ns( 57)] =   1.00000
     eigenvalues:
       0.167  0.167  0.167
     eigenvectors (columns):
       1.000  0.000  0.000
       0.000  1.000  0.000
       0.000  0.000  1.000
     occupation matrix ns (before diag.):
       0.167  0.000  0.000
       0.000  0.167  0.000
       0.000  0.000  0.167
     ------------------------ ATOM   58 ------------------------
     Tr[ns( 58)] =   1.00000
     eigenvalues:
       0.167  0.167  0.167
     eigenvectors (columns):
       1.000  0.000  0.000
       0.000  1.000  0.000
       0.000  0.000  1.000
     occupation matrix ns (before diag.):
       0.167  0.000  0.000
       0.000  0.167  0.000
       0.000  0.000  0.167
     ------------------------ ATOM   59 ------------------------
     Tr[ns( 59)] =   1.00000
     eigenvalues:
       0.167  0.167  0.167
     eigenvectors (columns):
       1.000  0.000  0.000
       0.000  1.000  0.000
       0.000  0.000  1.000
     occupation matrix ns (before diag.):
       0.167  0.000  0.000
       0.000  0.167  0.000
       0.000  0.000  0.167
     ------------------------ ATOM   60 ------------------------
     Tr[ns( 60)] =   1.00000
     eigenvalues:
       0.167  0.167  0.167
     eigenvectors (columns):
       1.000  0.000  0.000
       0.000  1.000  0.000
       0.000  0.000  1.000
     occupation matrix ns (before diag.):
       0.167  0.000  0.000
       0.000  0.167  0.000
       0.000  0.000  0.167
     ------------------------ ATOM   61 ------------------------
     Tr[ns( 61)] =   3.00000
     eigenvalues:
       0.500  0.500  0.500
     eigenvectors (columns):
       1.000  0.000  0.000
       0.000  1.000  0.000
       0.000  0.000  1.000
     occupation matrix ns (before diag.):
       0.500  0.000  0.000
       0.000  0.500  0.000
       0.000  0.000  0.500
     ------------------------ ATOM   62 ------------------------
     Tr[ns( 62)] =   3.00000
     eigenvalues:
       0.500  0.500  0.500
     eigenvectors (columns):
       1.000  0.000  0.000
       0.000  1.000  0.000
       0.000  0.000  1.000
     occupation matrix ns (before diag.):
       0.500  0.000  0.000
       0.000  0.500  0.000
       0.000  0.000  0.500
     ------------------------ ATOM   63 ------------------------
     Tr[ns( 63)] =   3.00000
     eigenvalues:
       0.500  0.500  0.500
     eigenvectors (columns):
       1.000  0.000  0.000
       0.000  1.000  0.000
       0.000  0.000  1.000
     occupation matrix ns (before diag.):
       0.500  0.000  0.000
       0.000  0.500  0.000
       0.000  0.000  0.500
     ------------------------ ATOM   64 ------------------------
     Tr[ns( 64)] =   3.00000
     eigenvalues:
       0.500  0.500  0.500
     eigenvectors (columns):
       1.000  0.000  0.000
       0.000  1.000  0.000
       0.000  0.000  1.000
     occupation matrix ns (before diag.):
       0.500  0.000  0.000
       0.000  0.500  0.000
       0.000  0.000  0.500
     ------------------------ ATOM   65 ------------------------
     Tr[ns( 65)] =   1.00000
     eigenvalues:
       0.167  0.167  0.167
     eigenvectors (columns):
       1.000  0.000  0.000
       0.000  1.000  0.000
       0.000  0.000  1.000
     occupation matrix ns (before diag.):
       0.167  0.000  0.000
       0.000  0.167  0.000
       0.000  0.000  0.167
     ------------------------ ATOM   66 ------------------------
     Tr[ns( 66)] =   1.00000
     eigenvalues:
       0.167  0.167  0.167
     eigenvectors (columns):
       1.000  0.000  0.000
       0.000  1.000  0.000
       0.000  0.000  1.000
     occupation matrix ns (before diag.):
       0.167  0.000  0.000
       0.000  0.167  0.000
       0.000  0.000  0.167
     ------------------------ ATOM   67 ------------------------
     Tr[ns( 67)] =   1.00000
     eigenvalues:
       0.167  0.167  0.167
     eigenvectors (columns):
       1.000  0.000  0.000
       0.000  1.000  0.000
       0.000  0.000  1.000
     occupation matrix ns (before diag.):
       0.167  0.000  0.000
       0.000  0.167  0.000
       0.000  0.000  0.167
     ------------------------ ATOM   68 ------------------------
     Tr[ns( 68)] =   1.00000
     eigenvalues:
       0.167  0.167  0.167
     eigenvectors (columns):
       1.000  0.000  0.000
       0.000  1.000  0.000
       0.000  0.000  1.000
     occupation matrix ns (before diag.):
       0.167  0.000  0.000
       0.000  0.167  0.000
       0.000  0.000  0.167
     ------------------------ ATOM   69 ------------------------
     Tr[ns( 69)] =   3.00000
     eigenvalues:
       0.500  0.500  0.500
     eigenvectors (columns):
       1.000  0.000  0.000
       0.000  1.000  0.000
       0.000  0.000  1.000
     occupation matrix ns (before diag.):
       0.500  0.000  0.000
       0.000  0.500  0.000
       0.000  0.000  0.500
     ------------------------ ATOM   70 ------------------------
     Tr[ns( 70)] =   3.00000
     eigenvalues:
       0.500  0.500  0.500
     eigenvectors (columns):
       1.000  0.000  0.000
       0.000  1.000  0.000
       0.000  0.000  1.000
     occupation matrix ns (before diag.):
       0.500  0.000  0.000
       0.000  0.500  0.000
       0.000  0.000  0.500
     ------------------------ ATOM   71 ------------------------
     Tr[ns( 71)] =   3.00000
     eigenvalues:
       0.500  0.500  0.500
     eigenvectors (columns):
       1.000  0.000  0.000
       0.000  1.000  0.000
       0.000  0.000  1.000
     occupation matrix ns (before diag.):
       0.500  0.000  0.000
       0.000  0.500  0.000
       0.000  0.000  0.500
     ------------------------ ATOM   72 ------------------------
     Tr[ns( 72)] =   3.00000
     eigenvalues:
       0.500  0.500  0.500
     eigenvectors (columns):
       1.000  0.000  0.000
       0.000  1.000  0.000
       0.000  0.000  1.000
     occupation matrix ns (before diag.):
       0.500  0.000  0.000
       0.000  0.500  0.000
       0.000  0.000  0.500
     ------------------------ ATOM   73 ------------------------
     Tr[ns( 73)] =   1.00000
     eigenvalues:
       0.167  0.167  0.167
     eigenvectors (columns):
       1.000  0.000  0.000
       0.000  1.000  0.000
       0.000  0.000  1.000
     occupation matrix ns (before diag.):
       0.167  0.000  0.000
       0.000  0.167  0.000
       0.000  0.000  0.167
     ------------------------ ATOM   74 ------------------------
     Tr[ns( 74)] =   1.00000
     eigenvalues:
       0.167  0.167  0.167
     eigenvectors (columns):
       1.000  0.000  0.000
       0.000  1.000  0.000
       0.000  0.000  1.000
     occupation matrix ns (before diag.):
       0.167  0.000  0.000
       0.000  0.167  0.000
       0.000  0.000  0.167
     ------------------------ ATOM   75 ------------------------
     Tr[ns( 75)] =   1.00000
     eigenvalues:
       0.167  0.167  0.167
     eigenvectors (columns):
       1.000  0.000  0.000
       0.000  1.000  0.000
       0.000  0.000  1.000
     occupation matrix ns (before diag.):
       0.167  0.000  0.000
       0.000  0.167  0.000
       0.000  0.000  0.167
     ------------------------ ATOM   76 ------------------------
     Tr[ns( 76)] =   1.00000
     eigenvalues:
       0.167  0.167  0.167
     eigenvectors (columns):
       1.000  0.000  0.000
       0.000  1.000  0.000
       0.000  0.000  1.000
     occupation matrix ns (before diag.):
       0.167  0.000  0.000
       0.000  0.167  0.000
       0.000  0.000  0.167
     ------------------------ ATOM   77 ------------------------
     Tr[ns( 77)] =   3.00000
     eigenvalues:
       0.500  0.500  0.500
     eigenvectors (columns):
       1.000  0.000  0.000
       0.000  1.000  0.000
       0.000  0.000  1.000
     occupation matrix ns (before diag.):
       0.500  0.000  0.000
       0.000  0.500  0.000
       0.000  0.000  0.500
     ------------------------ ATOM   78 ------------------------
     Tr[ns( 78)] =   3.00000
     eigenvalues:
       0.500  0.500  0.500
     eigenvectors (columns):
       1.000  0.000  0.000
       0.000  1.000  0.000
       0.000  0.000  1.000
     occupation matrix ns (before diag.):
       0.500  0.000  0.000
       0.000  0.500  0.000
       0.000  0.000  0.500
     ------------------------ ATOM   79 ------------------------
     Tr[ns( 79)] =   3.00000
     eigenvalues:
       0.500  0.500  0.500
     eigenvectors (columns):
       1.000  0.000  0.000
       0.000  1.000  0.000
       0.000  0.000  1.000
     occupation matrix ns (before diag.):
       0.500  0.000  0.000
       0.000  0.500  0.000
       0.000  0.000  0.500
     ------------------------ ATOM   80 ------------------------
     Tr[ns( 80)] =   3.00000
     eigenvalues:
       0.500  0.500  0.500
     eigenvectors (columns):
       1.000  0.000  0.000
       0.000  1.000  0.000
       0.000  0.000  1.000
     occupation matrix ns (before diag.):
       0.500  0.000  0.000
       0.000  0.500  0.000
       0.000  0.000  0.500
     ------------------------ ATOM   81 ------------------------
     Tr[ns( 81)] =   1.00000
     eigenvalues:
       0.167  0.167  0.167
     eigenvectors (columns):
       1.000  0.000  0.000
       0.000  1.000  0.000
       0.000  0.000  1.000
     occupation matrix ns (before diag.):
       0.167  0.000  0.000
       0.000  0.167  0.000
       0.000  0.000  0.167
     ------------------------ ATOM   82 ------------------------
     Tr[ns( 82)] =   1.00000
     eigenvalues:
       0.167  0.167  0.167
     eigenvectors (columns):
       1.000  0.000  0.000
       0.000  1.000  0.000
       0.000  0.000  1.000
     occupation matrix ns (before diag.):
       0.167  0.000  0.000
       0.000  0.167  0.000
       0.000  0.000  0.167
     ------------------------ ATOM   83 ------------------------
     Tr[ns( 83)] =   1.00000
     eigenvalues:
       0.167  0.167  0.167
     eigenvectors (columns):
       1.000  0.000  0.000
       0.000  1.000  0.000
       0.000  0.000  1.000
     occupation matrix ns (before diag.):
       0.167  0.000  0.000
       0.000  0.167  0.000
       0.000  0.000  0.167
     ------------------------ ATOM   84 ------------------------
     Tr[ns( 84)] =   1.00000
     eigenvalues:
       0.167  0.167  0.167
     eigenvectors (columns):
       1.000  0.000  0.000
       0.000  1.000  0.000
       0.000  0.000  1.000
     occupation matrix ns (before diag.):
       0.167  0.000  0.000
       0.000  0.167  0.000
       0.000  0.000  0.167
     ------------------------ ATOM   85 ------------------------
     Tr[ns( 85)] =   3.00000
     eigenvalues:
       0.500  0.500  0.500
     eigenvectors (columns):
       1.000  0.000  0.000
       0.000  1.000  0.000
       0.000  0.000  1.000
     occupation matrix ns (before diag.):
       0.500  0.000  0.000
       0.000  0.500  0.000
       0.000  0.000  0.500
     ------------------------ ATOM   86 ------------------------
     Tr[ns( 86)] =   3.00000
     eigenvalues:
       0.500  0.500  0.500
     eigenvectors (columns):
       1.000  0.000  0.000
       0.000  1.000  0.000
       0.000  0.000  1.000
     occupation matrix ns (before diag.):
       0.500  0.000  0.000
       0.000  0.500  0.000
       0.000  0.000  0.500
     ------------------------ ATOM   87 ------------------------
     Tr[ns( 87)] =   3.00000
     eigenvalues:
       0.500  0.500  0.500
     eigenvectors (columns):
       1.000  0.000  0.000
       0.000  1.000  0.000
       0.000  0.000  1.000
     occupation matrix ns (before diag.):
       0.500  0.000  0.000
       0.000  0.500  0.000
       0.000  0.000  0.500
     ------------------------ ATOM   88 ------------------------
     Tr[ns( 88)] =   3.00000
     eigenvalues:
       0.500  0.500  0.500
     eigenvectors (columns):
       1.000  0.000  0.000
       0.000  1.000  0.000
       0.000  0.000  1.000
     occupation matrix ns (before diag.):
       0.500  0.000  0.000
       0.000  0.500  0.000
       0.000  0.000  0.500
     ------------------------ ATOM   89 ------------------------
     Tr[ns( 89)] =   1.00000
     eigenvalues:
       0.167  0.167  0.167
     eigenvectors (columns):
       1.000  0.000  0.000
       0.000  1.000  0.000
       0.000  0.000  1.000
     occupation matrix ns (before diag.):
       0.167  0.000  0.000
       0.000  0.167  0.000
       0.000  0.000  0.167
     ------------------------ ATOM   90 ------------------------
     Tr[ns( 90)] =   1.00000
     eigenvalues:
       0.167  0.167  0.167
     eigenvectors (columns):
       1.000  0.000  0.000
       0.000  1.000  0.000
       0.000  0.000  1.000
     occupation matrix ns (before diag.):
       0.167  0.000  0.000
       0.000  0.167  0.000
       0.000  0.000  0.167
     ------------------------ ATOM   91 ------------------------
     Tr[ns( 91)] =   1.00000
     eigenvalues:
       0.167  0.167  0.167
     eigenvectors (columns):
       1.000  0.000  0.000
       0.000  1.000  0.000
       0.000  0.000  1.000
     occupation matrix ns (before diag.):
       0.167  0.000  0.000
       0.000  0.167  0.000
       0.000  0.000  0.167
     ------------------------ ATOM   92 ------------------------
     Tr[ns( 92)] =   1.00000
     eigenvalues:
       0.167  0.167  0.167
     eigenvectors (columns):
       1.000  0.000  0.000
       0.000  1.000  0.000
       0.000  0.000  1.000
     occupation matrix ns (before diag.):
       0.167  0.000  0.000
       0.000  0.167  0.000
       0.000  0.000  0.167
     ------------------------ ATOM   93 ------------------------
     Tr[ns( 93)] =   3.00000
     eigenvalues:
       0.500  0.500  0.500
     eigenvectors (columns):
       1.000  0.000  0.000
       0.000  1.000  0.000
       0.000  0.000  1.000
     occupation matrix ns (before diag.):
       0.500  0.000  0.000
       0.000  0.500  0.000
       0.000  0.000  0.500
     ------------------------ ATOM   94 ------------------------
     Tr[ns( 94)] =   3.00000
     eigenvalues:
       0.500  0.500  0.500
     eigenvectors (columns):
       1.000  0.000  0.000
       0.000  1.000  0.000
       0.000  0.000  1.000
     occupation matrix ns (before diag.):
       0.500  0.000  0.000
       0.000  0.500  0.000
       0.000  0.000  0.500
     ------------------------ ATOM   95 ------------------------
     Tr[ns( 95)] =   3.00000
     eigenvalues:
       0.500  0.500  0.500
     eigenvectors (columns):
       1.000  0.000  0.000
       0.000  1.000  0.000
       0.000  0.000  1.000
     occupation matrix ns (before diag.):
       0.500  0.000  0.000
       0.000  0.500  0.000
       0.000  0.000  0.500
     ------------------------ ATOM   96 ------------------------
     Tr[ns( 96)] =   3.00000
     eigenvalues:
       0.500  0.500  0.500
     eigenvectors (columns):
       1.000  0.000  0.000
       0.000  1.000  0.000
       0.000  0.000  1.000
     occupation matrix ns (before diag.):
       0.500  0.000  0.000
       0.000  0.500  0.000
       0.000  0.000  0.500
     ------------------------ ATOM   97 ------------------------
     Tr[ns( 97)] =   1.00000
     eigenvalues:
       0.167  0.167  0.167
     eigenvectors (columns):
       1.000  0.000  0.000
       0.000  1.000  0.000
       0.000  0.000  1.000
     occupation matrix ns (before diag.):
       0.167  0.000  0.000
       0.000  0.167  0.000
       0.000  0.000  0.167
     ------------------------ ATOM   98 ------------------------
     Tr[ns( 98)] =   1.00000
     eigenvalues:
       0.167  0.167  0.167
     eigenvectors (columns):
       1.000  0.000  0.000
       0.000  1.000  0.000
       0.000  0.000  1.000
     occupation matrix ns (before diag.):
       0.167  0.000  0.000
       0.000  0.167  0.000
       0.000  0.000  0.167
     ------------------------ ATOM   99 ------------------------
     Tr[ns( 99)] =   1.00000
     eigenvalues:
       0.167  0.167  0.167
     eigenvectors (columns):
       1.000  0.000  0.000
       0.000  1.000  0.000
       0.000  0.000  1.000
     occupation matrix ns (before diag.):
       0.167  0.000  0.000
       0.000  0.167  0.000
       0.000  0.000  0.167
     ------------------------ ATOM  100 ------------------------
     Tr[ns(100)] =   1.00000
     eigenvalues:
       0.167  0.167  0.167
     eigenvectors (columns):
       1.000  0.000  0.000
       0.000  1.000  0.000
       0.000  0.000  1.000
     occupation matrix ns (before diag.):
       0.167  0.000  0.000
       0.000  0.167  0.000
       0.000  0.000  0.167
     ------------------------ ATOM  101 ------------------------
     Tr[ns(101)] =   3.00000
     eigenvalues:
       0.500  0.500  0.500
     eigenvectors (columns):
       1.000  0.000  0.000
       0.000  1.000  0.000
       0.000  0.000  1.000
     occupation matrix ns (before diag.):
       0.500  0.000  0.000
       0.000  0.500  0.000
       0.000  0.000  0.500
     ------------------------ ATOM  102 ------------------------
     Tr[ns(102)] =   3.00000
     eigenvalues:
       0.500  0.500  0.500
     eigenvectors (columns):
       1.000  0.000  0.000
       0.000  1.000  0.000
       0.000  0.000  1.000
     occupation matrix ns (before diag.):
       0.500  0.000  0.000
       0.000  0.500  0.000
       0.000  0.000  0.500
     ------------------------ ATOM  103 ------------------------
     Tr[ns(103)] =   3.00000
     eigenvalues:
       0.500  0.500  0.500
     eigenvectors (columns):
       1.000  0.000  0.000
       0.000  1.000  0.000
       0.000  0.000  1.000
     occupation matrix ns (before diag.):
       0.500  0.000  0.000
       0.000  0.500  0.000
       0.000  0.000  0.500
     ------------------------ ATOM  104 ------------------------
     Tr[ns(104)] =   3.00000
     eigenvalues:
       0.500  0.500  0.500
     eigenvectors (columns):
       1.000  0.000  0.000
       0.000  1.000  0.000
       0.000  0.000  1.000
     occupation matrix ns (before diag.):
       0.500  0.000  0.000
       0.000  0.500  0.000
       0.000  0.000  0.500
     ------------------------ ATOM  105 ------------------------
     Tr[ns(105)] =   1.00000
     eigenvalues:
       0.167  0.167  0.167
     eigenvectors (columns):
       1.000  0.000  0.000
       0.000  1.000  0.000
       0.000  0.000  1.000
     occupation matrix ns (before diag.):
       0.167  0.000  0.000
       0.000  0.167  0.000
       0.000  0.000  0.167
     ------------------------ ATOM  106 ------------------------
     Tr[ns(106)] =   1.00000
     eigenvalues:
       0.167  0.167  0.167
     eigenvectors (columns):
       1.000  0.000  0.000
       0.000  1.000  0.000
       0.000  0.000  1.000
     occupation matrix ns (before diag.):
       0.167  0.000  0.000
       0.000  0.167  0.000
       0.000  0.000  0.167
     ------------------------ ATOM  107 ------------------------
     Tr[ns(107)] =   1.00000
     eigenvalues:
       0.167  0.167  0.167
     eigenvectors (columns):
       1.000  0.000  0.000
       0.000  1.000  0.000
       0.000  0.000  1.000
     occupation matrix ns (before diag.):
       0.167  0.000  0.000
       0.000  0.167  0.000
       0.000  0.000  0.167
     ------------------------ ATOM  108 ------------------------
     Tr[ns(108)] =   1.00000
     eigenvalues:
       0.167  0.167  0.167
     eigenvectors (columns):
       1.000  0.000  0.000
       0.000  1.000  0.000
       0.000  0.000  1.000
     occupation matrix ns (before diag.):
       0.167  0.000  0.000
       0.000  0.167  0.000
       0.000  0.000  0.167
     ------------------------ ATOM  109 ------------------------
     Tr[ns(109)] =   3.00000
     eigenvalues:
       0.500  0.500  0.500
     eigenvectors (columns):
       1.000  0.000  0.000
       0.000  1.000  0.000
       0.000  0.000  1.000
     occupation matrix ns (before diag.):
       0.500  0.000  0.000
       0.000  0.500  0.000
       0.000  0.000  0.500
     ------------------------ ATOM  110 ------------------------
     Tr[ns(110)] =   3.00000
     eigenvalues:
       0.500  0.500  0.500
     eigenvectors (columns):
       1.000  0.000  0.000
       0.000  1.000  0.000
       0.000  0.000  1.000
     occupation matrix ns (before diag.):
       0.500  0.000  0.000
       0.000  0.500  0.000
       0.000  0.000  0.500
     ------------------------ ATOM  111 ------------------------
     Tr[ns(111)] =   3.00000
     eigenvalues:
       0.500  0.500  0.500
     eigenvectors (columns):
       1.000  0.000  0.000
       0.000  1.000  0.000
       0.000  0.000  1.000
     occupation matrix ns (before diag.):
       0.500  0.000  0.000
       0.000  0.500  0.000
       0.000  0.000  0.500
     ------------------------ ATOM  112 ------------------------
     Tr[ns(112)] =   3.00000
     eigenvalues:
       0.500  0.500  0.500
     eigenvectors (columns):
       1.000  0.000  0.000
       0.000  1.000  0.000
       0.000  0.000  1.000
     occupation matrix ns (before diag.):
       0.500  0.000  0.000
       0.000  0.500  0.000
       0.000  0.000  0.500
     ------------------------ ATOM  113 ------------------------
     Tr[ns(113)] =   1.00000
     eigenvalues:
       0.167  0.167  0.167
     eigenvectors (columns):
       1.000  0.000  0.000
       0.000  1.000  0.000
       0.000  0.000  1.000
     occupation matrix ns (before diag.):
       0.167  0.000  0.000
       0.000  0.167  0.000
       0.000  0.000  0.167
     ------------------------ ATOM  114 ------------------------
     Tr[ns(114)] =   1.00000
     eigenvalues:
       0.167  0.167  0.167
     eigenvectors (columns):
       1.000  0.000  0.000
       0.000  1.000  0.000
       0.000  0.000  1.000
     occupation matrix ns (before diag.):
       0.167  0.000  0.000
       0.000  0.167  0.000
       0.000  0.000  0.167
     ------------------------ ATOM  115 ------------------------
     Tr[ns(115)] =   1.00000
     eigenvalues:
       0.167  0.167  0.167
     eigenvectors (columns):
       1.000  0.000  0.000
       0.000  1.000  0.000
       0.000  0.000  1.000
     occupation matrix ns (before diag.):
       0.167  0.000  0.000
       0.000  0.167  0.000
       0.000  0.000  0.167
     ------------------------ ATOM  116 ------------------------
     Tr[ns(116)] =   1.00000
     eigenvalues:
       0.167  0.167  0.167
     eigenvectors (columns):
       1.000  0.000  0.000
       0.000  1.000  0.000
       0.000  0.000  1.000
     occupation matrix ns (before diag.):
       0.167  0.000  0.000
       0.000  0.167  0.000
       0.000  0.000  0.167
     ------------------------ ATOM  117 ------------------------
     Tr[ns(117)] =   3.00000
     eigenvalues:
       0.500  0.500  0.500
     eigenvectors (columns):
       1.000  0.000  0.000
       0.000  1.000  0.000
       0.000  0.000  1.000
     occupation matrix ns (before diag.):
       0.500  0.000  0.000
       0.000  0.500  0.000
       0.000  0.000  0.500
     ------------------------ ATOM  118 ------------------------
     Tr[ns(118)] =   3.00000
     eigenvalues:
       0.500  0.500  0.500
     eigenvectors (columns):
       1.000  0.000  0.000
       0.000  1.000  0.000
       0.000  0.000  1.000
     occupation matrix ns (before diag.):
       0.500  0.000  0.000
       0.000  0.500  0.000
       0.000  0.000  0.500
     ------------------------ ATOM  119 ------------------------
     Tr[ns(119)] =   3.00000
     eigenvalues:
       0.500  0.500  0.500
     eigenvectors (columns):
       1.000  0.000  0.000
       0.000  1.000  0.000
       0.000  0.000  1.000
     occupation matrix ns (before diag.):
       0.500  0.000  0.000
       0.000  0.500  0.000
       0.000  0.000  0.500
     ------------------------ ATOM  120 ------------------------
     Tr[ns(120)] =   3.00000
     eigenvalues:
       0.500  0.500  0.500
     eigenvectors (columns):
       1.000  0.000  0.000
       0.000  1.000  0.000
       0.000  0.000  1.000
     occupation matrix ns (before diag.):
       0.500  0.000  0.000
       0.000  0.500  0.000
       0.000  0.000  0.500
     ------------------------ ATOM  121 ------------------------
     Tr[ns(121)] =   1.00000
     eigenvalues:
       0.167  0.167  0.167
     eigenvectors (columns):
       1.000  0.000  0.000
       0.000  1.000  0.000
       0.000  0.000  1.000
     occupation matrix ns (before diag.):
       0.167  0.000  0.000
       0.000  0.167  0.000
       0.000  0.000  0.167
     ------------------------ ATOM  122 ------------------------
     Tr[ns(122)] =   1.00000
     eigenvalues:
       0.167  0.167  0.167
     eigenvectors (columns):
       1.000  0.000  0.000
       0.000  1.000  0.000
       0.000  0.000  1.000
     occupation matrix ns (before diag.):
       0.167  0.000  0.000
       0.000  0.167  0.000
       0.000  0.000  0.167
     ------------------------ ATOM  123 ------------------------
     Tr[ns(123)] =   1.00000
     eigenvalues:
       0.167  0.167  0.167
     eigenvectors (columns):
       1.000  0.000  0.000
       0.000  1.000  0.000
       0.000  0.000  1.000
     occupation matrix ns (before diag.):
       0.167  0.000  0.000
       0.000  0.167  0.000
       0.000  0.000  0.167
     ------------------------ ATOM  124 ------------------------
     Tr[ns(124)] =   1.00000
     eigenvalues:
       0.167  0.167  0.167
     eigenvectors (columns):
       1.000  0.000  0.000
       0.000  1.000  0.000
       0.000  0.000  1.000
     occupation matrix ns (before diag.):
       0.167  0.000  0.000
       0.000  0.167  0.000
       0.000  0.000  0.167
     ------------------------ ATOM  125 ------------------------
     Tr[ns(125)] =   3.00000
     eigenvalues:
       0.500  0.500  0.500
     eigenvectors (columns):
       1.000  0.000  0.000
       0.000  1.000  0.000
       0.000  0.000  1.000
     occupation matrix ns (before diag.):
       0.500  0.000  0.000
       0.000  0.500  0.000
       0.000  0.000  0.500
     ------------------------ ATOM  126 ------------------------
     Tr[ns(126)] =   3.00000
     eigenvalues:
       0.500  0.500  0.500
     eigenvectors (columns):
       1.000  0.000  0.000
       0.000  1.000  0.000
       0.000  0.000  1.000
     occupation matrix ns (before diag.):
       0.500  0.000  0.000
       0.000  0.500  0.000
       0.000  0.000  0.500
     ------------------------ ATOM  127 ------------------------
     Tr[ns(127)] =   3.00000
     eigenvalues:
       0.500  0.500  0.500
     eigenvectors (columns):
       1.000  0.000  0.000
       0.000  1.000  0.000
       0.000  0.000  1.000
     occupation matrix ns (before diag.):
       0.500  0.000  0.000
       0.000  0.500  0.000
       0.000  0.000  0.500
     ------------------------ ATOM  128 ------------------------
     Tr[ns(128)] =   3.00000
     eigenvalues:
       0.500  0.500  0.500
     eigenvectors (columns):
       1.000  0.000  0.000
       0.000  1.000  0.000
       0.000  0.000  1.000
     occupation matrix ns (before diag.):
       0.500  0.000  0.000
       0.000  0.500  0.000
       0.000  0.000  0.500
     ------------------------ ATOM  129 ------------------------
     Tr[ns(129)] =   1.00000
     eigenvalues:
       0.167  0.167  0.167
     eigenvectors (columns):
       1.000  0.000  0.000
       0.000  1.000  0.000
       0.000  0.000  1.000
     occupation matrix ns (before diag.):
       0.167  0.000  0.000
       0.000  0.167  0.000
       0.000  0.000  0.167
     ------------------------ ATOM  130 ------------------------
     Tr[ns(130)] =   1.00000
     eigenvalues:
       0.167  0.167  0.167
     eigenvectors (columns):
       1.000  0.000  0.000
       0.000  1.000  0.000
       0.000  0.000  1.000
     occupation matrix ns (before diag.):
       0.167  0.000  0.000
       0.000  0.167  0.000
       0.000  0.000  0.167
     ------------------------ ATOM  131 ------------------------
     Tr[ns(131)] =   1.00000
     eigenvalues:
       0.167  0.167  0.167
     eigenvectors (columns):
       1.000  0.000  0.000
       0.000  1.000  0.000
       0.000  0.000  1.000
     occupation matrix ns (before diag.):
       0.167  0.000  0.000
       0.000  0.167  0.000
       0.000  0.000  0.167
     ------------------------ ATOM  132 ------------------------
     Tr[ns(132)] =   1.00000
     eigenvalues:
       0.167  0.167  0.167
     eigenvectors (columns):
       1.000  0.000  0.000
       0.000  1.000  0.000
       0.000  0.000  1.000
     occupation matrix ns (before diag.):
       0.167  0.000  0.000
       0.000  0.167  0.000
       0.000  0.000  0.167
     ------------------------ ATOM  133 ------------------------
     Tr[ns(133)] =   3.00000
     eigenvalues:
       0.500  0.500  0.500
     eigenvectors (columns):
       1.000  0.000  0.000
       0.000  1.000  0.000
       0.000  0.000  1.000
     occupation matrix ns (before diag.):
       0.500  0.000  0.000
       0.000  0.500  0.000
       0.000  0.000  0.500
     ------------------------ ATOM  134 ------------------------
     Tr[ns(134)] =   3.00000
     eigenvalues:
       0.500  0.500  0.500
     eigenvectors (columns):
       1.000  0.000  0.000
       0.000  1.000  0.000
       0.000  0.000  1.000
     occupation matrix ns (before diag.):
       0.500  0.000  0.000
       0.000  0.500  0.000
       0.000  0.000  0.500
     ------------------------ ATOM  135 ------------------------
     Tr[ns(135)] =   3.00000
     eigenvalues:
       0.500  0.500  0.500
     eigenvectors (columns):
       1.000  0.000  0.000
       0.000  1.000  0.000
       0.000  0.000  1.000
     occupation matrix ns (before diag.):
       0.500  0.000  0.000
       0.000  0.500  0.000
       0.000  0.000  0.500
     ------------------------ ATOM  136 ------------------------
     Tr[ns(136)] =   3.00000
     eigenvalues:
       0.500  0.500  0.500
     eigenvectors (columns):
       1.000  0.000  0.000
       0.000  1.000  0.000
       0.000  0.000  1.000
     occupation matrix ns (before diag.):
       0.500  0.000  0.000
       0.000  0.500  0.000
       0.000  0.000  0.500
     ------------------------ ATOM  137 ------------------------
     Tr[ns(137)] =   1.00000
     eigenvalues:
       0.167  0.167  0.167
     eigenvectors (columns):
       1.000  0.000  0.000
       0.000  1.000  0.000
       0.000  0.000  1.000
     occupation matrix ns (before diag.):
       0.167  0.000  0.000
       0.000  0.167  0.000
       0.000  0.000  0.167
     ------------------------ ATOM  138 ------------------------
     Tr[ns(138)] =   1.00000
     eigenvalues:
       0.167  0.167  0.167
     eigenvectors (columns):
       1.000  0.000  0.000
       0.000  1.000  0.000
       0.000  0.000  1.000
     occupation matrix ns (before diag.):
       0.167  0.000  0.000
       0.000  0.167  0.000
       0.000  0.000  0.167
     ------------------------ ATOM  139 ------------------------
     Tr[ns(139)] =   1.00000
     eigenvalues:
       0.167  0.167  0.167
     eigenvectors (columns):
       1.000  0.000  0.000
       0.000  1.000  0.000
       0.000  0.000  1.000
     occupation matrix ns (before diag.):
       0.167  0.000  0.000
       0.000  0.167  0.000
       0.000  0.000  0.167
     ------------------------ ATOM  140 ------------------------
     Tr[ns(140)] =   1.00000
     eigenvalues:
       0.167  0.167  0.167
     eigenvectors (columns):
       1.000  0.000  0.000
       0.000  1.000  0.000
       0.000  0.000  1.000
     occupation matrix ns (before diag.):
       0.167  0.000  0.000
       0.000  0.167  0.000
       0.000  0.000  0.167
     ------------------------ ATOM  141 ------------------------
     Tr[ns(141)] =   3.00000
     eigenvalues:
       0.500  0.500  0.500
     eigenvectors (columns):
       1.000  0.000  0.000
       0.000  1.000  0.000
       0.000  0.000  1.000
     occupation matrix ns (before diag.):
       0.500  0.000  0.000
       0.000  0.500  0.000
       0.000  0.000  0.500
     ------------------------ ATOM  142 ------------------------
     Tr[ns(142)] =   3.00000
     eigenvalues:
       0.500  0.500  0.500
     eigenvectors (columns):
       1.000  0.000  0.000
       0.000  1.000  0.000
       0.000  0.000  1.000
     occupation matrix ns (before diag.):
       0.500  0.000  0.000
       0.000  0.500  0.000
       0.000  0.000  0.500
     ------------------------ ATOM  143 ------------------------
     Tr[ns(143)] =   3.00000
     eigenvalues:
       0.500  0.500  0.500
     eigenvectors (columns):
       1.000  0.000  0.000
       0.000  1.000  0.000
       0.000  0.000  1.000
     occupation matrix ns (before diag.):
       0.500  0.000  0.000
       0.000  0.500  0.000
       0.000  0.000  0.500
     ------------------------ ATOM  144 ------------------------
     Tr[ns(144)] =   3.00000
     eigenvalues:
       0.500  0.500  0.500
     eigenvectors (columns):
       1.000  0.000  0.000
       0.000  1.000  0.000
       0.000  0.000  1.000
     occupation matrix ns (before diag.):
       0.500  0.000  0.000
       0.000  0.500  0.000
       0.000  0.000  0.500
     ------------------------ ATOM  145 ------------------------
     Tr[ns(145)] =   1.00000
     eigenvalues:
       0.167  0.167  0.167
     eigenvectors (columns):
       1.000  0.000  0.000
       0.000  1.000  0.000
       0.000  0.000  1.000
     occupation matrix ns (before diag.):
       0.167  0.000  0.000
       0.000  0.167  0.000
       0.000  0.000  0.167
     ------------------------ ATOM  146 ------------------------
     Tr[ns(146)] =   1.00000
     eigenvalues:
       0.167  0.167  0.167
     eigenvectors (columns):
       1.000  0.000  0.000
       0.000  1.000  0.000
       0.000  0.000  1.000
     occupation matrix ns (before diag.):
       0.167  0.000  0.000
       0.000  0.167  0.000
       0.000  0.000  0.167
     ------------------------ ATOM  147 ------------------------
     Tr[ns(147)] =   1.00000
     eigenvalues:
       0.167  0.167  0.167
     eigenvectors (columns):
       1.000  0.000  0.000
       0.000  1.000  0.000
       0.000  0.000  1.000
     occupation matrix ns (before diag.):
       0.167  0.000  0.000
       0.000  0.167  0.000
       0.000  0.000  0.167
     ------------------------ ATOM  148 ------------------------
     Tr[ns(148)] =   1.00000
     eigenvalues:
       0.167  0.167  0.167
     eigenvectors (columns):
       1.000  0.000  0.000
       0.000  1.000  0.000
       0.000  0.000  1.000
     occupation matrix ns (before diag.):
       0.167  0.000  0.000
       0.000  0.167  0.000
       0.000  0.000  0.167
     ------------------------ ATOM  149 ------------------------
     Tr[ns(149)] =   3.00000
     eigenvalues:
       0.500  0.500  0.500
     eigenvectors (columns):
       1.000  0.000  0.000
       0.000  1.000  0.000
       0.000  0.000  1.000
     occupation matrix ns (before diag.):
       0.500  0.000  0.000
       0.000  0.500  0.000
       0.000  0.000  0.500
     ------------------------ ATOM  150 ------------------------
     Tr[ns(150)] =   3.00000
     eigenvalues:
       0.500  0.500  0.500
     eigenvectors (columns):
       1.000  0.000  0.000
       0.000  1.000  0.000
       0.000  0.000  1.000
     occupation matrix ns (before diag.):
       0.500  0.000  0.000
       0.000  0.500  0.000
       0.000  0.000  0.500
     ------------------------ ATOM  151 ------------------------
     Tr[ns(151)] =   3.00000
     eigenvalues:
       0.500  0.500  0.500
     eigenvectors (columns):
       1.000  0.000  0.000
       0.000  1.000  0.000
       0.000  0.000  1.000
     occupation matrix ns (before diag.):
       0.500  0.000  0.000
       0.000  0.500  0.000
       0.000  0.000  0.500
     ------------------------ ATOM  152 ------------------------
     Tr[ns(152)] =   3.00000
     eigenvalues:
       0.500  0.500  0.500
     eigenvectors (columns):
       1.000  0.000  0.000
       0.000  1.000  0.000
       0.000  0.000  1.000
     occupation matrix ns (before diag.):
       0.500  0.000  0.000
[...]
     0.9627   0.9653   0.9729   0.9790   0.9843   0.9974   1.0042   1.0167
     1.0185   1.0249   1.0315   1.0482   1.0556   1.0577   1.0676   1.0715
     1.0823   1.0918   1.1039   1.1059   1.1171   1.1226   1.1459   1.5469
     1.5546   1.5624   1.5736   1.5785   1.5827   1.5882   1.6073   1.6153
     1.6268   1.6487   1.6521   1.6596   1.6705   1.6812   1.7131   1.7276
     1.7368   1.7582   1.7695   1.7905   1.8174   1.8267   1.8633   1.9524
     1.9690   1.9909   2.0108   2.0371   2.0467   2.0533   2.0777   2.1057
     2.1224   2.1445   2.1578   2.1974   2.2456   3.1362   3.1555   3.1740
     3.2011   3.2156   3.2271   3.2512   3.2854   3.3282   3.3435   3.3479
     3.3557   3.3633   3.3681   3.3737   3.3762   3.3845   3.3873   3.3908
     3.3977   3.4005   3.4125   3.4208   3.4356   3.8447   3.8633   3.8711
     3.8863   3.9070   3.9298   3.9362   3.9447   3.9628   3.9841   3.9943
     4.0297   4.0657   4.0821   4.0862   4.0970   4.1095   4.1146   4.1252
     4.1371   4.1427   4.1489   4.1620   4.1635   4.1720   4.1757   4.1784
     4.1825   4.1949   4.2031   4.2048   4.2089   4.2123   4.2221   4.2264
     4.2379   4.2435   4.2528   4.2582   4.2593   4.2750   4.2759   4.2793
     4.2974   4.3006   4.3149   4.3421   4.3717   4.4649   4.4726   4.5220
     4.5361   4.5493   4.5871   4.6021   4.6106   4.6147   4.6235   4.6302
     4.6696   4.6833   4.6920   4.7013   4.7075   4.7157   4.7246   4.7285
     4.7327   4.7376   4.7433   4.7483   4.7606   4.7691   4.7728   4.7770
     4.7838   4.7887   4.7929   4.8045   4.8179   4.8221   4.8322   4.8364
     4.8446   5.0042   5.0186   5.0222   5.0271   5.0312   5.0406   5.0422
     5.0699   5.0776   5.0814   5.0929   5.1069   5.1454   5.1589   5.1630
     5.1674   5.1830   5.1880   5.1930   5.1975   5.2016   5.2121   5.2157
     5.2212   5.2239   5.2346   5.2399   5.2478   5.2536   5.2620   5.2634
     5.2719   5.2787   5.2819   5.2927   5.2992   5.3096   5.3102   5.3146
     5.3228   5.3409   5.3451   5.3563   5.3601   5.3670   5.3703   5.3803
     5.3953   5.4067   5.4073   5.4166   5.4264   5.4415   5.4469   5.4546
     5.4647   5.4708   5.4775   5.4889   5.5228   5.5385   5.5440   5.5534
     5.5779   5.6065   5.6123   5.6285   5.6426   5.6466   5.6515   5.6843
     5.6929   5.7082   5.7132   5.7302   5.7352   5.7381   5.7470   5.7695
     5.7817   5.7861   5.7985   5.8006   5.8284   6.1154   6.1378   6.1506
     6.1643   6.1724   6.1895   6.1920   6.1977   6.2158   6.2295   6.2399
     6.2626   6.2759   6.2885   6.2942   6.3101   6.3439   6.3483   6.3618
     6.3661   6.3822   6.3944   6.4065   6.4151   6.4317   6.4675   6.4700
     6.4939   6.5526   6.5820   6.6086   6.6347   6.6708   6.6799   6.7043
     6.7267   6.7552   6.7575   6.7937   6.8087   7.1409   7.1524   7.1585

     highest occupied level (ev):     7.1585

!    total energy              =  -36448.11859567 Ry
     estimated scf accuracy    <       0.00000013 Ry

     The total energy is the sum of the following terms:
     one-electron contribution =  -18586.35181283 Ry
     hartree contribution      =   11044.18105079 Ry
     xc contribution           =   -9410.82240769 Ry
     ewald contribution        =  -19497.26409010 Ry
     Hubbard energy            =       2.13866415 Ry

     convergence has been achieved in   6 iterations

     Forces acting on atoms (cartesian axes, Ry/au):

     atom    1 type  3   force =     0.00000457   -0.00024903   -0.00070586
     atom    2 type  3   force =    -0.00038033    0.00038134    0.00014736
     atom    3 type  3   force =     0.00061296   -0.00038589    0.00002615
     atom    4 type  3   force =     0.00059754   -0.00009345   -0.00038694
     atom    5 type  4   force =     0.00019925    0.00014889   -0.00029259
     atom    6 type  1   force =     0.00013785    0.00005591   -0.00023026
     atom    7 type  1   force =     0.00004685    0.00008315   -0.00032266
     atom    8 type  4   force =     0.00011671    0.00012977    0.00000611
     atom    9 type  3   force =    -0.00011491   -0.00003473   -0.00031549
     atom   10 type  3   force =     0.00002241    0.00022373    0.00028451
     atom   11 type  3   force =     0.00006456   -0.00005493   -0.00000143
     atom   12 type  3   force =     0.00028575    0.00009195   -0.00012883
     atom   13 type  4   force =    -0.00023751   -0.00010748    0.00012313
     atom   14 type  1   force =    -0.00012549   -0.00003530    0.00000439
     atom   15 type  1   force =    -0.00019594    0.00007245   -0.00003007
     atom   16 type  1   force =    -0.00019526    0.00012952    0.00001743
     atom   17 type  3   force =     0.00010755    0.00026883    0.00050922
     atom   18 type  3   force =    -0.00013358   -0.00046556   -0.00046880
     atom   19 type  3   force =    -0.00027980   -0.00000979   -0.00034970
     atom   20 type  3   force =    -0.00048796   -0.00022658   -0.00015482
     atom   21 type  1   force =     0.00015798    0.00024341    0.00015827
     atom   22 type  4   force =     0.00016849    0.00018584   -0.00016803
     atom   23 type  1   force =     0.00014862    0.00044680    0.00001595
     atom   24 type  4   force =    -0.00012977    0.00009861    0.00005845
     atom   25 type  3   force =    -0.00024425    0.00041279    0.00022029
     atom   26 type  3   force =    -0.00012478   -0.00007762   -0.00011563
     atom   27 type  3   force =    -0.00008191    0.00048137    0.00005961
     atom   28 type  3   force =    -0.00068600   -0.00008249    0.00079097
     atom   29 type  1   force =     0.00021304    0.00024759   -0.00032634
     atom   30 type  1   force =    -0.00007998    0.00030367   -0.00005379
     atom   31 type  1   force =     0.00018249   -0.00001984   -0.00025441
     atom   32 type  4   force =    -0.00022048   -0.00014035   -0.00013435
     atom   33 type  3   force =     0.00002232    0.00021755   -0.00012539
     atom   34 type  3   force =     0.00048788   -0.00011322    0.00012413
     atom   35 type  3   force =    -0.00020481   -0.00003203    0.00029376
     atom   36 type  3   force =    -0.00007941   -0.00021130    0.00004004
     atom   37 type  1   force =    -0.00014109    0.00000468   -0.00002469
     atom   38 type  1   force =     0.00018672   -0.00017521    0.00052312
     atom   39 type  1   force =     0.00012505    0.00011619    0.00031473
     atom   40 type  1   force =     0.00020172   -0.00006381   -0.00006307
     atom   41 type  3   force =     0.00010454   -0.00027233   -0.00024432
     atom   42 type  3   force =    -0.00039504   -0.00017737    0.00002445
     atom   43 type  3   force =    -0.00033518   -0.00007061   -0.00032376
     atom   44 type  3   force =    -0.00002034   -0.00022250   -0.00057150
     atom   45 type  4   force =     0.00022631   -0.00025487    0.00009876
     atom   46 type  4   force =     0.00003924   -0.00010240    0.00004920
     atom   47 type  4   force =    -0.00005620   -0.00005491    0.00000200
     atom   48 type  4   force =     0.00005462   -0.00014947    0.00024798
     atom   49 type  3   force =    -0.00031857   -0.00002417    0.00021962
     atom   50 type  3   force =    -0.00000112   -0.00037614    0.00025127
     atom   51 type  3   force =    -0.00052730    0.00014406    0.00005806
     atom   52 type  3   force =     0.00001854    0.00038378    0.00013604
     atom   53 type  1   force =    -0.00002065    0.00003062    0.00014101
     atom   54 type  1   force =    -0.00016639    0.00015628    0.00002637
     atom   55 type  4   force =    -0.00020855    0.00000838   -0.00001268
     atom   56 type  1   force =     0.00001031   -0.00010575   -0.00002564
     atom   57 type  3   force =     0.00016411    0.00033955   -0.00013482
     atom   58 type  3   force =     0.00051410    0.00007042   -0.00031017
     atom   59 type  3   force =     0.00023301   -0.00019854    0.00019440
     atom   60 type  3   force =    -0.00008516   -0.00009885   -0.00003430
     atom   61 type  1   force =    -0.00007861    0.00017918    0.00007951
     atom   62 type  1   force =    -0.00014974   -0.00011777    0.00001561
     atom   63 type  1   force =     0.00028868   -0.00001875    0.00016162
     atom   64 type  1   force =    -0.00008621   -0.00008040   -0.00015716
     atom   65 type  3   force =     0.00028901   -0.00077573    0.00018093
     atom   66 type  3   force =    -0.00004418    0.00019548    0.00015580
     atom   67 type  3   force =     0.00014705    0.00033821    0.00039196
     atom   68 type  3   force =     0.00023535   -0.00014465   -0.00006454
     atom   69 type  4   force =     0.00001518   -0.00024944    0.00013550
     atom   70 type  1   force =    -0.00020090    0.00002132    0.00004697
     atom   71 type  1   force =    -0.00019712   -0.00059957   -0.00006234
     atom   72 type  1   force =     0.00004940   -0.00006398   -0.00015121
     atom   73 type  3   force =     0.00024608   -0.00068950    0.00000689
     atom   74 type  3   force =     0.00004606   -0.00011309    0.00010746
     atom   75 type  3   force =    -0.00022043    0.00010780    0.00008139
     atom   76 type  3   force =     0.00007858   -0.00014981    0.00006226
     atom   77 type  1   force =     0.00022468    0.00004437    0.00013734
     atom   78 type  1   force =     0.00022294   -0.00014914   -0.00003012
     atom   79 type  4   force =     0.00012876   -0.00016331    0.00039633
     atom   80 type  1   force =    -0.00005812   -0.00017736    0.00019367
     atom   81 type  3   force =    -0.00000704   -0.00003847    0.00004483
     atom   82 type  3   force =    -0.00003393    0.00030248    0.00021835
     atom   83 type  3   force =     0.00013946    0.00037956   -0.00033194
     atom   84 type  3   force =    -0.00002105   -0.00020966    0.00005769
     atom   85 type  1   force =     0.00005139   -0.00008479   -0.00002223
     atom   86 type  1   force =    -0.00019433    0.00036814    0.00016018
     atom   87 type  1   force =     0.00009731    0.00004261   -0.00009166
     atom   88 type  1   force =    -0.00008349   -0.00013685    0.00021279
     atom   89 type  3   force =    -0.00033468    0.00020374    0.00022936
     atom   90 type  3   force =     0.00013916   -0.00028186   -0.00002580
     atom   91 type  3   force =    -0.00013095    0.00021954    0.00040497
     atom   92 type  3   force =    -0.00010077    0.00013328   -0.00015340
     atom   93 type  1   force =    -0.00035053    0.00033018    0.00008217
     atom   94 type  4   force =    -0.00012585    0.00008899    0.00012767
     atom   95 type  1   force =    -0.00022276    0.00027017    0.00018630
     atom   96 type  1   force =    -0.00020050    0.00052346    0.00018304
     atom   97 type  3   force =     0.00067365    0.00013191    0.00094789
     atom   98 type  3   force =    -0.00003821   -0.00052703   -0.00033360
     atom   99 type  3   force =    -0.00009228    0.00023413   -0.00009744
     atom  100 type  3   force =    -0.00014288   -0.00020781    0.00013537
     atom  101 type  1   force =    -0.00027367   -0.00013033   -0.00042590
     atom  102 type  1   force =    -0.00015153   -0.00015818   -0.00016689
     atom  103 type  1   force =    -0.00005800   -0.00032649   -0.00008664
     atom  104 type  1   force =    -0.00012972    0.00000924   -0.00025781
     atom  105 type  3   force =    -0.00033856   -0.00008795   -0.00019365
     atom  106 type  3   force =    -0.00014820    0.00024931    0.00023684
     atom  107 type  3   force =    -0.00017820   -0.00018919    0.00037125
     atom  108 type  3   force =     0.00031448   -0.00008799    0.00003177
     atom  109 type  4   force =    -0.00006613   -0.00011330    0.00003308
     atom  110 type  1   force =     0.00018922   -0.00014645    0.00003490
     atom  111 type  1   force =    -0.00007204    0.00002768    0.00015607
     atom  112 type  1   force =    -0.00003367    0.00019506   -0.00010594
     atom  113 type  3   force =    -0.00003201   -0.00008810   -0.00064264
     atom  114 type  3   force =     0.00033964    0.00017882    0.00000496
     atom  115 type  3   force =     0.00020684    0.00006069    0.00018076
     atom  116 type  3   force =     0.00016455    0.00052531   -0.00018709
     atom  117 type  4   force =    -0.00021745    0.00020017    0.00013605
     atom  118 type  4   force =    -0.00012714   -0.00016861   -0.00006165
     atom  119 type  1   force =    -0.00026494    0.00003999   -0.00021944
     atom  120 type  1   force =    -0.00014497   -0.00010873   -0.00000503
     atom  121 type  3   force =     0.00000082    0.00018426   -0.00001397
     atom  122 type  3   force =    -0.00029817    0.00032099   -0.00025840
     atom  123 type  3   force =     0.00024096   -0.00012037   -0.00017531
     atom  124 type  3   force =    -0.00039859    0.00016738   -0.00053711
     atom  125 type  1   force =    -0.00046199   -0.00018104   -0.00010331
     atom  126 type  1   force =     0.00017358   -0.00023038   -0.00007671
     atom  127 type  4   force =     0.00008094   -0.00020284   -0.00009794
     atom  128 type  1   force =     0.00010051   -0.00010573    0.00037415
     atom  129 type  3   force =    -0.00027069   -0.00000479    0.00010802
     atom  130 type  3   force =    -0.00031709   -0.00023881   -0.00008229
     atom  131 type  3   force =     0.00040425   -0.00024958    0.00013136
     atom  132 type  3   force =     0.00018198    0.00004648    0.00005820
     atom  133 type  1   force =     0.00023997    0.00006175   -0.00015271
     atom  134 type  4   force =    -0.00014667    0.00013450   -0.00003846
     atom  135 type  1   force =     0.00028001    0.00024987   -0.00037456
     atom  136 type  1   force =     0.00020753    0.00006930   -0.00005962
     atom  137 type  3   force =     0.00013095    0.00009425   -0.00058945
     atom  138 type  3   force =     0.00011727    0.00041960    0.00019057
     atom  139 type  3   force =     0.00028021    0.00002423   -0.00002205
     atom  140 type  3   force =     0.00023311   -0.00050143   -0.00007456
     atom  141 type  1   force =     0.00021305   -0.00007176   -0.00009799
     atom  142 type  1   force =     0.00007496    0.00003979    0.00010851
     atom  143 type  1   force =    -0.00013002   -0.00011085   -0.00011252
     atom  144 type  1   force =     0.00010636    0.00013454   -0.00021501
     atom  145 type  3   force =     0.00004825    0.00023904   -0.00025370
     atom  146 type  3   force =     0.00004194    0.00002396    0.00017298
     atom  147 type  3   force =    -0.00003789    0.00004554    0.00034506
     atom  148 type  3   force =     0.00015633    0.00024404   -0.00016612
     atom  149 type  1   force =     0.00012939   -0.00006550    0.00021079
     atom  150 type  1   force =     0.00008366   -0.00010953    0.00006294
     atom  151 type  1   force =     0.00013548   -0.00013711   -0.00004057
     atom  152 type  1   force =     0.00018973    0.00018728   -0.00016144
     atom  153 type  3   force =     0.00017581    0.00009490    0.00015885
     atom  154 type  3   force =    -0.00012056   -0.00029173   -0.00009400
     atom  155 type  3   force =     0.00000121    0.00023304   -0.00036756
     atom  156 type  3   force =    -0.00009073   -0.00004516   -0.00004732
     atom  157 type  1   force =    -0.00006353   -0.00013757    0.00015517
     atom  158 type  4   force =    -0.00009849   -0.00017978    0.00019340
     atom  159 type  1   force =    -0.00050041   -0.00014368   -0.00023913
     atom  160 type  1   force =    -0.00015632   -0.00029816   -0.00010693
     atom  161 type  3   force =     0.00000932    0.00055452    0.00023000
     atom  162 type  3   force =    -0.00011543   -0.00025555    0.00014628
     atom  163 type  3   force =     0.00015918    0.00006930   -0.00008355
     atom  164 type  3   force =     0.00021895   -0.00009671    0.00025806
     atom  165 type  1   force =     0.00012668   -0.00005152   -0.00019370
     atom  166 type  1   force =    -0.00006087    0.00015084   -0.00002914
     atom  167 type  1   force =     0.00027630   -0.00005729    0.00001955
     atom  168 type  1   force =     0.00001078   -0.00009813   -0.00019937
     atom  169 type  3   force =     0.00004165    0.00004578    0.00007222
     atom  170 type  3   force =    -0.00015861   -0.00038499   -0.00021256
     atom  171 type  3   force =     0.00010901    0.00013970   -0.00007453
     atom  172 type  3   force =     0.00022630    0.00011210    0.00013529
     atom  173 type  1   force =     0.00001683   -0.00018471    0.00003317
     atom  174 type  1   force =     0.00003869    0.00008489    0.00004083
     atom  175 type  1   force =    -0.00000431    0.00031244    0.00006985
     atom  176 type  1   force =    -0.00005767    0.00013837    0.00011555
     atom  177 type  3   force =    -0.00000924   -0.00006264   -0.00018500
     atom  178 type  3   force =    -0.00017055    0.00058874    0.00012612
     atom  179 type  3   force =     0.00025197   -0.00019870    0.00004503
     atom  180 type  3   force =    -0.00000275   -0.00004991   -0.00002550
     atom  181 type  1   force =     0.00006765    0.00014207    0.00012765
     atom  182 type  1   force =     0.00026403    0.00027355   -0.00020478
     atom  183 type  1   force =     0.00008586   -0.00016062    0.00010490
     atom  184 type  4   force =     0.00008955    0.00003471    0.00018478
     atom  185 type  3   force =    -0.00052260   -0.00004054   -0.00003038
     atom  186 type  3   force =    -0.00022604    0.00033687    0.00011513
     atom  187 type  3   force =     0.00019151   -0.00009773    0.00024387
     atom  188 type  3   force =     0.00005276    0.00025207   -0.00010466
     atom  189 type  4   force =     0.00006112    0.00007162    0.00006864
     atom  190 type  1   force =    -0.00011942   -0.00003252   -0.00009807
     atom  191 type  1   force =     0.00019207   -0.00002946   -0.00015008
     atom  192 type  1   force =     0.00046911   -0.00012731   -0.00000578
     atom  193 type  3   force =    -0.00030217   -0.00039207   -0.00053890
     atom  194 type  3   force =     0.00007117    0.00041271    0.00059889
     atom  195 type  3   force =     0.00056729   -0.00003240    0.00022431
     atom  196 type  3   force =     0.00028335    0.00010340   -0.00062778
     atom  197 type  4   force =    -0.00003475   -0.00002419    0.00004424
     atom  198 type  1   force =    -0.00007483    0.00005286    0.00015574
     atom  199 type  1   force =    -0.00019780    0.00033793    0.00025959
     atom  200 type  4   force =    -0.00007349    0.00006788    0.00006596
     atom  201 type  3   force =    -0.00016499    0.00015293    0.00024546
     atom  202 type  3   force =    -0.00010509   -0.00030455   -0.00025030
     atom  203 type  3   force =    -0.00064733   -0.00019201   -0.00008319
     atom  204 type  3   force =    -0.00007072   -0.00001504   -0.00014560
     atom  205 type  1   force =     0.00030211    0.00001705    0.00002496
     atom  206 type  4   force =    -0.00000075   -0.00021137   -0.00020840
     atom  207 type  4   force =     0.00022471   -0.00024821    0.00002905
     atom  208 type  4   force =    -0.00007615   -0.00005903    0.00005540
     atom  209 type  3   force =    -0.00017183    0.00002422   -0.00007130
     atom  210 type  3   force =     0.00007696   -0.00030269    0.00000205
     atom  211 type  3   force =    -0.00006123   -0.00019748    0.00002687
     atom  212 type  3   force =    -0.00013469    0.00001551    0.00069136
     atom  213 type  1   force =    -0.00007379    0.00006309   -0.00036250
     atom  214 type  1   force =     0.00017611   -0.00007041    0.00010539
     atom  215 type  1   force =    -0.00010495    0.00024745    0.00031409
     atom  216 type  1   force =     0.00002992   -0.00022096   -0.00011832

     Total force =     0.005746     Total SCF correction =     0.002736
     SCF correction compared to forces is large: reduce conv_thr to get better values


     Computing stress (Cartesian axis) and pressure

