
     Program PWSCF v.7.3.1 starts on 16Jun2025 at 12: 2:33 

     This program is part of the open-source Quantum ESPRESSO suite
     for quantum simulation of materials; please cite
         "P. Giannozzi et al., J. Phys.:Condens. Matter 21 395502 (2009);
         "P. Giannozzi et al., J. Phys.:Condens. Matter 29 465901 (2017);
         "P. Giannozzi et al., J. Chem. Phys. 152 154105 (2020);
          URL http://www.quantum-espresso.org", 
     in publications or presentations arising from this work. More details at
     http://www.quantum-espresso.org/quote

     Parallel version (MPI), running on   640 processors

     MPI processes distributed on     5 nodes
     431040 MiB available memory on the printing compute node when the environment starts

     Reading input from In0.0Ga1.0As0.5Sb0.5_cube_3x3x3.6.scf.in
Warning: card &CELL ignored
Warning: card   CELL_DOFREE = 'ALL', ignored
Warning: card / ignored

     Current dimensions of program PWSCF are:
     Max number of different atomic species (ntypx) = 10
     Max number of k-points (npk) =  40000
     Max angular momentum in pseudopotentials (lmaxx) =  4

     K-points division:     npool     =       8
     R & G space division:  proc/nbgrp/npool/nimage =      80
     Subspace diagonalization in iterative solution of the eigenvalue problem:
     one sub-group per band group will be used
     custom distributed-memory algorithm (size of sub-group:  8*  8 procs)


     Parallelization info
     --------------------
     sticks:   dense  smooth     PW     G-vecs:    dense   smooth      PW
     Min         533     533    137                82995    82995   10841
     Max         534     534    138                83004    83004   10846
     Sum       42689   42689  11001              6639945  6639945  867423

     Using Slab Decomposition



     bravais-lattice index     =            1
     lattice parameter (alat)  =      33.4378  a.u.
     unit-cell volume          =   37386.3353 (a.u.)^3
     number of atoms/cell      =          216
     number of atomic types    =            4
     number of electrons       =      3024.00
     number of Kohn-Sham states=         2160
     kinetic-energy cutoff     =     120.0000  Ry
     charge density cutoff     =     480.0000  Ry
     scf convergence threshold =      1.0E-05
     mixing beta               =       0.6500
     number of iterations used =            8  plain     mixing
     Exchange-correlation= PBE
                           (   1   4   3   4   0   0   0)
     Hubbard projectors: atomic
     Hubbard parameters of DFT+U (Dudarev formulation) in eV:
     U(As-4p) =  5.8400
     U(Ga-4p) = -2.8000
     U(In-5p) = -1.0150
     U(Sb-5p) =  4.8900

     Internal variables: lda_plus_u =T, lda_plus_u_kind = 0

     celldm(1)=  33.437795  celldm(2)=   0.000000  celldm(3)=   0.000000
     celldm(4)=   0.000000  celldm(5)=   0.000000  celldm(6)=   0.000000

     crystal axes: (cart. coord. in units of alat)
               a(1) = (   1.000000   0.000000   0.000000 )  
               a(2) = (   0.000000   1.000000   0.000000 )  
               a(3) = (   0.000000   0.000000   1.000000 )  

     reciprocal axes: (cart. coord. in units 2 pi/alat)
               b(1) = (  1.000000  0.000000  0.000000 )  
               b(2) = (  0.000000  1.000000  0.000000 )  
               b(3) = (  0.000000  0.000000  1.000000 )  


     PseudoPot. # 1 for As read from file:
     /work/i254/i254/gentles/data/pseudos/As.pbe.NC-SR.standard.v0.5.UPF
     MD5 check sum: bfe1a874457ce592347346129958e7cf
     Pseudo is Norm-conserving + core correction, Zval = 15.0
     Generated using ONCVPSP code by D. R. Hamann
     Using radial grid of 1358 points,  6 beta functions with: 
                l(1) =   0
                l(2) =   0
                l(3) =   1
                l(4) =   1
                l(5) =   2
                l(6) =   2

     PseudoPot. # 2 for Ga read from file:
     /work/i254/i254/gentles/data/pseudos/Ga.pbe.NC-SR.standard.v0.5.UPF
     MD5 check sum: 2bb81bf6f0a8d9832cf3329850435ecf
     Pseudo is Norm-conserving + core correction, Zval = 13.0
     Generated using ONCVPSP code by D. R. Hamann
     Using radial grid of 1902 points,  6 beta functions with: 
                l(1) =   0
                l(2) =   0
                l(3) =   1
                l(4) =   1
                l(5) =   2
                l(6) =   2

     PseudoPot. # 3 for In read from file:
     /work/i254/i254/gentles/data/pseudos/In.pbe.NC-SR.standard.v0.5.UPF
     MD5 check sum: 835f4bf908c982ff75c88e16816a8d7f
     Pseudo is Norm-conserving + core correction, Zval = 13.0
     Generated using ONCVPSP code by D. R. Hamann
     Using radial grid of 1964 points,  6 beta functions with: 
                l(1) =   0
                l(2) =   0
                l(3) =   1
                l(4) =   1
                l(5) =   2
                l(6) =   2

     PseudoPot. # 4 for Sb read from file:
     /work/i254/i254/gentles/data/pseudos/Sb.pbe.NC-SR.standard.v0.5.UPF
     MD5 check sum: 127f69b6101c45666faeae1b5d611565
     Pseudo is Norm-conserving + core correction, Zval = 15.0
     Generated using ONCVPSP code by D. R. Hamann
     Using radial grid of 1434 points,  6 beta functions with: 
                l(1) =   0
                l(2) =   0
                l(3) =   1
                l(4) =   1
                l(5) =   2
                l(6) =   2

     atomic species   valence    mass     pseudopotential
     As               15.00    74.92160     As( 1.00)
     Ga               13.00    69.72300     Ga( 1.00)
     In               13.00   114.81800     In( 1.00)
     Sb               15.00   121.76000     Sb( 1.00)

     No symmetry found



   Cartesian axes

     site n.     atom                  positions (alat units)
         1        Ga     tau(   1) = (  -0.0004430   0.0074700  -0.0031820  )
         2        Ga     tau(   2) = (   0.0034070   0.1603750   0.1631140  )
         3        Ga     tau(   3) = (   0.1593800   0.0046570   0.1609660  )
         4        Ga     tau(   4) = (   0.1607170   0.1727680   0.0006990  )
         5        As     tau(   5) = (   0.0820840   0.0856580   0.0782580  )
         6        Sb     tau(   6) = (   0.0839170   0.2523090   0.2461730  )
         7        Sb     tau(   7) = (   0.2465930   0.0880610   0.2474250  )
         8        As     tau(   8) = (   0.2465000   0.2542630   0.0770140  )
         9        Ga     tau(   9) = (  -0.0064470  -0.0063010   0.3385360  )
        10        Ga     tau(  10) = (  -0.0064920   0.1619950   0.5074190  )
        11        Ga     tau(  11) = (   0.1593680  -0.0094700   0.5074340  )
        12        Ga     tau(  12) = (   0.1686000   0.1743090   0.3398670  )
        13        Sb     tau(  13) = (   0.0814350   0.0815280   0.4200930  )
        14        Sb     tau(  14) = (   0.0821420   0.2516420   0.5867540  )
        15        Sb     tau(  15) = (   0.2457990   0.0817560   0.5861400  )
        16        As     tau(  16) = (   0.2493680   0.2541690   0.4198070  )
        17        Ga     tau(  17) = (  -0.0020630  -0.0024060   0.6674860  )
        18        Ga     tau(  18) = (   0.0006470   0.1675000   0.8357910  )
        19        Ga     tau(  19) = (   0.1629830  -0.0002670   0.8253270  )
        20        Ga     tau(  20) = (   0.1588200   0.1616350   0.6749130  )
        21        As     tau(  21) = (   0.0764270   0.0808330   0.7515770  )
        22        As     tau(  22) = (   0.0808290   0.2531980   0.9172040  )
        23        Sb     tau(  23) = (   0.2465210   0.0845480   0.9155730  )
        24        Sb     tau(  24) = (   0.2463540   0.2537260   0.7525250  )
        25        Ga     tau(  25) = (   0.0016560   0.3394780  -0.0045020  )
        26        Ga     tau(  26) = (   0.0044710   0.4977040   0.1685790  )
        27        Ga     tau(  27) = (   0.1662680   0.3367980   0.1555090  )
        28        Ga     tau(  28) = (   0.1611040   0.4994050  -0.0046590  )
        29        As     tau(  29) = (   0.0823110   0.4192780   0.0795070  )
        30        As     tau(  30) = (   0.0797890   0.5862570   0.2509180  )
        31        Sb     tau(  31) = (   0.2493070   0.4185870   0.2497450  )
        32        Sb     tau(  32) = (   0.2476950   0.5838330   0.0813110  )
        33        Ga     tau(  33) = (  -0.0036440   0.3395480   0.3280370  )
        34        Ga     tau(  34) = (  -0.0047190   0.5053160   0.4950950  )
        35        Ga     tau(  35) = (   0.1717190   0.3357490   0.5006680  )
        36        Ga     tau(  36) = (   0.1670630   0.5122170   0.3310270  )
        37        Sb     tau(  37) = (   0.0851560   0.4208800   0.4142500  )
        38        Sb     tau(  38) = (   0.0806180   0.5850260   0.5848710  )
        39        As     tau(  39) = (   0.2485400   0.4202940   0.5798350  )
        40        As     tau(  40) = (   0.2495790   0.5858610   0.4171570  )
        41        Ga     tau(  41) = (   0.0005710   0.3343870   0.6779360  )
        42        Ga     tau(  42) = (   0.0000120   0.5029480   0.8311850  )
        43        Ga     tau(  43) = (   0.1620420   0.3383520   0.8399710  )
        44        Ga     tau(  44) = (   0.1633660   0.4908200   0.6663760  )
        45        As     tau(  45) = (   0.0820670   0.4173010   0.7552590  )
        46        As     tau(  46) = (   0.0805670   0.5829600   0.9137520  )
        47        As     tau(  47) = (   0.2468860   0.4164740   0.9209540  )
        48        Sb     tau(  48) = (   0.2464980   0.5801400   0.7509770  )
        49        Ga     tau(  49) = (   0.0044730   0.6681540  -0.0043150  )
        50        Ga     tau(  50) = (  -0.0025580   0.8223270   0.1649610  )
        51        Ga     tau(  51) = (   0.1605750   0.6670020   0.1699490  )
        52        Ga     tau(  52) = (   0.1591200   0.8274320   0.0056740  )
        53        As     tau(  53) = (   0.0808000   0.7450610   0.0844440  )
        54        Sb     tau(  54) = (   0.0801580   0.9123490   0.2484720  )
        55        As     tau(  55) = (   0.2461070   0.7434240   0.2511700  )
        56        Sb     tau(  56) = (   0.2485980   0.9137460   0.0842250  )
        57        Ga     tau(  57) = (  -0.0027330   0.6675450   0.3333400  )
        58        Ga     tau(  58) = (  -0.0006210   0.8296800   0.5006670  )
        59        Ga     tau(  59) = (   0.1636130   0.6667660   0.4927170  )
        60        Ga     tau(  60) = (   0.1645120   0.8229520   0.3319700  )
        61        As     tau(  61) = (   0.0793640   0.7478280   0.4146080  )
        62        As     tau(  62) = (   0.0772750   0.9118870   0.5874950  )
        63        Sb     tau(  63) = (   0.2471410   0.7494460   0.5825950  )
        64        Sb     tau(  64) = (   0.2469930   0.9111470   0.4174820  )
        65        Ga     tau(  65) = (  -0.0037800   0.6727460   0.6711140  )
        66        Ga     tau(  66) = (  -0.0078250   0.8302450   0.8298900  )
        67        Ga     tau(  67) = (   0.1560850   0.6667460   0.8309090  )
        68        Ga     tau(  68) = (   0.1594540   0.8341590   0.6716250  )
        69        As     tau(  69) = (   0.0774650   0.7519600   0.7516600  )
        70        Sb     tau(  70) = (   0.0797790   0.9147560   0.9146790  )
        71        Sb     tau(  71) = (   0.2474490   0.7491590   0.9164140  )
        72        As     tau(  72) = (   0.2439860   0.9155760   0.7495910  )
        73        Ga     tau(  73) = (   0.3359060  -0.0063810  -0.0064030  )
        74        Ga     tau(  74) = (   0.3271110   0.1751700   0.1582020  )
        75        Ga     tau(  75) = (   0.5016340  -0.0009730   0.1674510  )
        76        Ga     tau(  76) = (   0.5013410   0.1670450  -0.0095340  )
        77        Sb     tau(  77) = (   0.4161920   0.0841130   0.0793170  )
        78        Sb     tau(  78) = (   0.4146080   0.2564260   0.2480970  )
        79        Sb     tau(  79) = (   0.5920980   0.0831370   0.2501540  )
        80        Sb     tau(  80) = (   0.5834590   0.2502720   0.0822730  )
        81        Ga     tau(  81) = (   0.3299270  -0.0028570   0.3303520  )
        82        Ga     tau(  82) = (   0.3272940   0.1711110   0.4974920  )
        83        Ga     tau(  83) = (   0.5001850  -0.0008450   0.5003460  )
        84        Ga     tau(  84) = (   0.5014150   0.1687250   0.3307480  )
        85        Sb     tau(  85) = (   0.4142010   0.0841930   0.4149480  )
        86        Sb     tau(  86) = (   0.4157040   0.2549660   0.5818600  )
        87        Sb     tau(  87) = (   0.5895230   0.0798550   0.5847960  )
        88        Sb     tau(  88) = (   0.5861640   0.2540200   0.4167890  )
        89        Ga     tau(  89) = (   0.3273870  -0.0057880   0.6720220  )
        90        Ga     tau(  90) = (   0.3368370   0.1738340   0.8389480  )
        91        Ga     tau(  91) = (   0.5069300  -0.0047990   0.8381250  )
        92        Ga     tau(  92) = (   0.4991460   0.1649660   0.6654240  )
        93        Sb     tau(  93) = (   0.4169280   0.0801120   0.7551190  )
        94        As     tau(  94) = (   0.4156430   0.2532940   0.9201280  )
        95        As     tau(  95) = (   0.5855510   0.0825800   0.9146060  )
        96        Sb     tau(  96) = (   0.5837070   0.2482540   0.7517170  )
        97        Ga     tau(  97) = (   0.3311670   0.3343240  -0.0002490  )
        98        Ga     tau(  98) = (   0.3372490   0.4968440   0.1612670  )
        99        Ga     tau(  99) = (   0.5001290   0.3438370   0.1635890  )
       100        Ga     tau( 100) = (   0.4919170   0.5005550   0.0014890  )
       101        As     tau( 101) = (   0.4145290   0.4161550   0.0798200  )
       102        Sb     tau( 102) = (   0.4187780   0.5848620   0.2490560  )
       103        As     tau( 103) = (   0.5830960   0.4182820   0.2484170  )
       104        Sb     tau( 104) = (   0.5842970   0.5850590   0.0838730  )
       105        Ga     tau( 105) = (   0.3320870   0.3359930   0.3431980  )
       106        Ga     tau( 106) = (   0.3316600   0.5030480   0.4996690  )
       107        Ga     tau( 107) = (   0.5015720   0.3457040   0.5007460  )
       108        Ga     tau( 108) = (   0.4998840   0.4925360   0.3339910  )
       109        As     tau( 109) = (   0.4145340   0.4201400   0.4195040  )
       110        As     tau( 110) = (   0.4162680   0.5813760   0.5814250  )
       111        As     tau( 111) = (   0.5842530   0.4230120   0.5839490  )
       112        Sb     tau( 112) = (   0.5833010   0.5826330   0.4176870  )
       113        Ga     tau( 113) = (   0.3264120   0.3412830   0.6625980  )
       114        Ga     tau( 114) = (   0.3292400   0.5005360   0.8449700  )
       115        Ga     tau( 115) = (   0.4952340   0.3306350   0.8370690  )
       116        Ga     tau( 116) = (   0.5038610   0.5048720   0.6639810  )
       117        Sb     tau( 117) = (   0.4145510   0.4213410   0.7511170  )
       118        As     tau( 118) = (   0.4159550   0.5814540   0.9187100  )
       119        Sb     tau( 119) = (   0.5820600   0.4206520   0.9166570  )
       120        As     tau( 120) = (   0.5847290   0.5827790   0.7481570  )
       121        Ga     tau( 121) = (   0.3404330   0.6666030  -0.0010760  )
       122        Ga     tau( 122) = (   0.3290500   0.8212630   0.1681790  )
       123        Ga     tau( 123) = (   0.5023410   0.6766080   0.1654280  )
       124        Ga     tau( 124) = (   0.4909950   0.8308880  -0.0006650  )
       125        As     tau( 125) = (   0.4147170   0.7494290   0.0836480  )
       126        Sb     tau( 126) = (   0.4173300   0.9083400   0.2504560  )
       127        As     tau( 127) = (   0.5874120   0.7491170   0.2483460  )
       128        Sb     tau( 128) = (   0.5854390   0.9140310   0.0812650  )
       129        Ga     tau( 129) = (   0.3283950   0.6665540   0.3356200  )
       130        Ga     tau( 130) = (   0.3393660   0.8271530   0.4959540  )
       131        Ga     tau( 131) = (   0.4905560   0.6658070   0.4984210  )
       132        Ga     tau( 132) = (   0.5039830   0.8212330   0.3344310  )
       133        As     tau( 133) = (   0.4153420   0.7452960   0.4133450  )
       134        Sb     tau( 134) = (   0.4178170   0.9134100   0.5867640  )
       135        Sb     tau( 135) = (   0.5840660   0.7478790   0.5838460  )
       136        Sb     tau( 136) = (   0.5867890   0.9128410   0.4171780  )
       137        Ga     tau( 137) = (   0.3354510   0.6607020   0.6625490  )
       138        Ga     tau( 138) = (   0.3291880   0.8401200   0.8323320  )
       139        Ga     tau( 139) = (   0.5003520   0.6559140   0.8338090  )
       140        Ga     tau( 140) = (   0.5082390   0.8364170   0.6745200  )
       141        Sb     tau( 141) = (   0.4166530   0.7485910   0.7522480  )
       142        As     tau( 142) = (   0.4178150   0.9144640   0.9132790  )
       143        Sb     tau( 143) = (   0.5839250   0.7461380   0.9177630  )
       144        As     tau( 144) = (   0.5883250   0.9195090   0.7519600  )
       145        Ga     tau( 145) = (   0.6677390   0.0080890  -0.0002450  )
       146        Ga     tau( 146) = (   0.6776990   0.1689960   0.1636910  )
       147        Ga     tau( 147) = (   0.8240130  -0.0046910   0.1637700  )
       148        Ga     tau( 148) = (   0.8358500   0.1580170  -0.0005680  )
       149        As     tau( 149) = (   0.7515820   0.0828620   0.0820620  )
       150        As     tau( 150) = (   0.7518620   0.2517930   0.2488470  )
       151        Sb     tau( 151) = (   0.9115510   0.0797350   0.2485530  )
       152        Sb     tau( 152) = (   0.9186160   0.2506860   0.0824300  )
       153        Ga     tau( 153) = (   0.6778360  -0.0049660   0.3337510  )
       154        Ga     tau( 154) = (   0.6740690   0.1603630   0.4948310  )
       155        Ga     tau( 155) = (   0.8354490  -0.0008600   0.5020560  )
       156        Ga     tau( 156) = (   0.8257170   0.1668130   0.3328320  )
       157        As     tau( 157) = (   0.7551500   0.0784220   0.4160340  )
       158        Sb     tau( 158) = (   0.7514090   0.2477770   0.5864080  )
       159        As     tau( 159) = (   0.9147890   0.0794120   0.5879930  )
       160        Sb     tau( 160) = (   0.9157520   0.2495530   0.4158050  )
       161        Ga     tau( 161) = (   0.6765370  -0.0044060   0.6720690  )
       162        Ga     tau( 162) = (   0.6704750   0.1563050   0.8305550  )
       163        Ga     tau( 163) = (   0.8417510   0.0006100   0.8299440  )
       164        Ga     tau( 164) = (   0.8383950   0.1623930   0.6733110  )
       165        As     tau( 165) = (   0.7566610   0.0790740   0.7515930  )
       166        Sb     tau( 166) = (   0.7535700   0.2464120   0.9146740  )
       167        As     tau( 167) = (   0.9189250   0.0843340   0.9140180  )
       168        As     tau( 168) = (   0.9207300   0.2469130   0.7528170  )
       169        Ga     tau( 169) = (   0.6692390   0.3346930  -0.0009250  )
       170        Ga     tau( 170) = (   0.6673240   0.5030340   0.1751070  )
       171        Ga     tau( 171) = (   0.8372530   0.3349660   0.1748550  )
       172        Ga     tau( 172) = (   0.8358300   0.4993570  -0.0090820  )
       173        Sb     tau( 173) = (   0.7531690   0.4190900   0.0860500  )
       174        As     tau( 174) = (   0.7518960   0.5858040   0.2502040  )
       175        As     tau( 175) = (   0.9175930   0.4225330   0.2500320  )
       176        Sb     tau( 176) = (   0.9183090   0.5841160   0.0823770  )
       177        Ga     tau( 177) = (   0.6667420   0.3345680   0.3225000  )
       178        Ga     tau( 178) = (   0.6706820   0.5030540   0.5077630  )
       179        Ga     tau( 179) = (   0.8334610   0.3356220   0.5014260  )
       180        Ga     tau( 180) = (   0.8380690   0.5085970   0.3298210  )
       181        Sb     tau( 181) = (   0.7506330   0.4207190   0.4125810  )
       182        As     tau( 182) = (   0.7539020   0.5852420   0.5848300  )
       183        Sb     tau( 183) = (   0.9176740   0.4204950   0.5878540  )
       184        As     tau( 184) = (   0.9163930   0.5871040   0.4151220  )
       185        Ga     tau( 185) = (   0.6621920   0.3391930   0.6643730  )
       186        Ga     tau( 186) = (   0.6674200   0.5091910   0.8338440  )
       187        Ga     tau( 187) = (   0.8437160   0.3318440   0.8325810  )
       188        Ga     tau( 188) = (   0.8357450   0.5118270   0.6692930  )
       189        Sb     tau( 189) = (   0.7530790   0.4202130   0.7512950  )
       190        As     tau( 190) = (   0.7540540   0.5848390   0.9157020  )
       191        As     tau( 191) = (   0.9204770   0.4187230   0.9120090  )
       192        As     tau( 192) = (   0.9191050   0.5874510   0.7523480  )
       193        Ga     tau( 193) = (   0.6785290   0.6659760   0.0018460  )
       194        Ga     tau( 194) = (   0.6722270   0.8290200   0.1698110  )
       195        Ga     tau( 195) = (   0.8311490   0.6692070   0.1704450  )
       196        Ga     tau( 196) = (   0.8348300   0.8235970  -0.0012110  )
       197        As     tau( 197) = (   0.7537610   0.7485900   0.0862400  )
       198        As     tau( 198) = (   0.7533700   0.9121730   0.2497970  )
       199        As     tau( 199) = (   0.9162790   0.7479760   0.2506970  )
       200        Sb     tau( 200) = (   0.9165850   0.9147070   0.0807980  )
       201        Ga     tau( 201) = (   0.6677430   0.6658820   0.3268920  )
       202        Ga     tau( 202) = (   0.6751060   0.8361700   0.5067590  )
       203        Ga     tau( 203) = (   0.8378670   0.6645750   0.5030530  )
       204        Ga     tau( 204) = (   0.8409080   0.8360410   0.3302470  )
       205        Sb     tau( 205) = (   0.7543760   0.7504180   0.4152700  )
       206        As     tau( 206) = (   0.7557890   0.9181650   0.5854520  )
       207        As     tau( 207) = (   0.9181330   0.7498330   0.5829970  )
       208        As     tau( 208) = (   0.9163400   0.9136930   0.4216480  )
       209        Ga     tau( 209) = (   0.6688530   0.6599740   0.6667690  )
       210        Ga     tau( 210) = (   0.6645390   0.8360450   0.8299260  )
       211        Ga     tau( 211) = (   0.8396130   0.6634500   0.8379260  )
       212        Ga     tau( 212) = (   0.8394900   0.8365490   0.6612980  )
       213        Sb     tau( 213) = (   0.7547950   0.7494630   0.7490170  )
       214        Sb     tau( 214) = (   0.7531110   0.9176930   0.9163210  )
       215        As     tau( 215) = (   0.9185120   0.7467850   0.9163370  )
       216        As     tau( 216) = (   0.9175830   0.9158050   0.7472080  )

     number of k points=     8
                       cart. coord. in units 2pi/alat
        k(    1) = (   0.0000000   0.0000000   0.0000000), wk =   0.2500000
        k(    2) = (   0.0000000   0.0000000  -0.5000000), wk =   0.2500000
        k(    3) = (   0.0000000  -0.5000000  -0.5000000), wk =   0.2500000
        k(    4) = (  -0.5000000  -0.5000000  -0.5000000), wk =   0.2500000
        k(    5) = (  -0.5000000   0.0000000   0.0000000), wk =   0.2500000
        k(    6) = (   0.0000000  -0.5000000   0.0000000), wk =   0.2500000
        k(    7) = (  -0.5000000   0.0000000   0.5000000), wk =   0.2500000
        k(    8) = (  -0.5000000   0.5000000   0.0000000), wk =   0.2500000

     Dense  grid:  6639945 G-vectors     FFT dimensions: ( 240, 240, 240)

     Estimated max dynamical RAM per process >       2.57 GB

     Estimated total dynamical RAM >    1632.59 GB

     Initial potential from superposition of free atoms

     starting charge    3023.6679, renormalised to    3024.0000

     STARTING HUBBARD OCCUPATIONS:

     =================== HUBBARD OCCUPATIONS ===================
     ------------------------ ATOM    1 ------------------------
     Tr[ns(  1)] =   1.00000
     eigenvalues:
       0.167  0.167  0.167
     eigenvectors (columns):
       1.000  0.000  0.000
       0.000  1.000  0.000
       0.000  0.000  1.000
     occupation matrix ns (before diag.):
       0.167  0.000  0.000
       0.000  0.167  0.000
       0.000  0.000  0.167
     ------------------------ ATOM    2 ------------------------
     Tr[ns(  2)] =   1.00000
     eigenvalues:
       0.167  0.167  0.167
     eigenvectors (columns):
       1.000  0.000  0.000
       0.000  1.000  0.000
       0.000  0.000  1.000
     occupation matrix ns (before diag.):
       0.167  0.000  0.000
       0.000  0.167  0.000
       0.000  0.000  0.167
     ------------------------ ATOM    3 ------------------------
     Tr[ns(  3)] =   1.00000
     eigenvalues:
       0.167  0.167  0.167
     eigenvectors (columns):
       1.000  0.000  0.000
       0.000  1.000  0.000
       0.000  0.000  1.000
     occupation matrix ns (before diag.):
       0.167  0.000  0.000
       0.000  0.167  0.000
       0.000  0.000  0.167
     ------------------------ ATOM    4 ------------------------
     Tr[ns(  4)] =   1.00000
     eigenvalues:
       0.167  0.167  0.167
     eigenvectors (columns):
       1.000  0.000  0.000
       0.000  1.000  0.000
       0.000  0.000  1.000
     occupation matrix ns (before diag.):
       0.167  0.000  0.000
       0.000  0.167  0.000
       0.000  0.000  0.167
     ------------------------ ATOM    5 ------------------------
     Tr[ns(  5)] =   3.00000
     eigenvalues:
       0.500  0.500  0.500
     eigenvectors (columns):
       1.000  0.000  0.000
       0.000  1.000  0.000
       0.000  0.000  1.000
     occupation matrix ns (before diag.):
       0.500  0.000  0.000
       0.000  0.500  0.000
       0.000  0.000  0.500
     ------------------------ ATOM    6 ------------------------
     Tr[ns(  6)] =   3.00000
     eigenvalues:
       0.500  0.500  0.500
     eigenvectors (columns):
       1.000  0.000  0.000
       0.000  1.000  0.000
       0.000  0.000  1.000
     occupation matrix ns (before diag.):
       0.500  0.000  0.000
       0.000  0.500  0.000
       0.000  0.000  0.500
     ------------------------ ATOM    7 ------------------------
     Tr[ns(  7)] =   3.00000
     eigenvalues:
       0.500  0.500  0.500
     eigenvectors (columns):
       1.000  0.000  0.000
       0.000  1.000  0.000
       0.000  0.000  1.000
     occupation matrix ns (before diag.):
       0.500  0.000  0.000
       0.000  0.500  0.000
       0.000  0.000  0.500
     ------------------------ ATOM    8 ------------------------
     Tr[ns(  8)] =   3.00000
     eigenvalues:
       0.500  0.500  0.500
     eigenvectors (columns):
       1.000  0.000  0.000
       0.000  1.000  0.000
       0.000  0.000  1.000
     occupation matrix ns (before diag.):
       0.500  0.000  0.000
       0.000  0.500  0.000
       0.000  0.000  0.500
     ------------------------ ATOM    9 ------------------------
     Tr[ns(  9)] =   1.00000
     eigenvalues:
       0.167  0.167  0.167
     eigenvectors (columns):
       1.000  0.000  0.000
       0.000  1.000  0.000
       0.000  0.000  1.000
     occupation matrix ns (before diag.):
       0.167  0.000  0.000
       0.000  0.167  0.000
       0.000  0.000  0.167
     ------------------------ ATOM   10 ------------------------
     Tr[ns( 10)] =   1.00000
     eigenvalues:
       0.167  0.167  0.167
     eigenvectors (columns):
       1.000  0.000  0.000
       0.000  1.000  0.000
       0.000  0.000  1.000
     occupation matrix ns (before diag.):
       0.167  0.000  0.000
       0.000  0.167  0.000
       0.000  0.000  0.167
     ------------------------ ATOM   11 ------------------------
     Tr[ns( 11)] =   1.00000
     eigenvalues:
       0.167  0.167  0.167
     eigenvectors (columns):
       1.000  0.000  0.000
       0.000  1.000  0.000
       0.000  0.000  1.000
     occupation matrix ns (before diag.):
       0.167  0.000  0.000
       0.000  0.167  0.000
       0.000  0.000  0.167
     ------------------------ ATOM   12 ------------------------
     Tr[ns( 12)] =   1.00000
     eigenvalues:
       0.167  0.167  0.167
     eigenvectors (columns):
       1.000  0.000  0.000
       0.000  1.000  0.000
       0.000  0.000  1.000
     occupation matrix ns (before diag.):
       0.167  0.000  0.000
       0.000  0.167  0.000
       0.000  0.000  0.167
     ------------------------ ATOM   13 ------------------------
     Tr[ns( 13)] =   3.00000
     eigenvalues:
       0.500  0.500  0.500
     eigenvectors (columns):
       1.000  0.000  0.000
       0.000  1.000  0.000
       0.000  0.000  1.000
     occupation matrix ns (before diag.):
       0.500  0.000  0.000
       0.000  0.500  0.000
       0.000  0.000  0.500
     ------------------------ ATOM   14 ------------------------
     Tr[ns( 14)] =   3.00000
     eigenvalues:
       0.500  0.500  0.500
     eigenvectors (columns):
       1.000  0.000  0.000
       0.000  1.000  0.000
       0.000  0.000  1.000
     occupation matrix ns (before diag.):
       0.500  0.000  0.000
       0.000  0.500  0.000
       0.000  0.000  0.500
     ------------------------ ATOM   15 ------------------------
     Tr[ns( 15)] =   3.00000
     eigenvalues:
       0.500  0.500  0.500
     eigenvectors (columns):
       1.000  0.000  0.000
       0.000  1.000  0.000
       0.000  0.000  1.000
     occupation matrix ns (before diag.):
       0.500  0.000  0.000
       0.000  0.500  0.000
       0.000  0.000  0.500
     ------------------------ ATOM   16 ------------------------
     Tr[ns( 16)] =   3.00000
     eigenvalues:
       0.500  0.500  0.500
     eigenvectors (columns):
       1.000  0.000  0.000
       0.000  1.000  0.000
       0.000  0.000  1.000
     occupation matrix ns (before diag.):
       0.500  0.000  0.000
       0.000  0.500  0.000
       0.000  0.000  0.500
     ------------------------ ATOM   17 ------------------------
     Tr[ns( 17)] =   1.00000
     eigenvalues:
       0.167  0.167  0.167
     eigenvectors (columns):
       1.000  0.000  0.000
       0.000  1.000  0.000
       0.000  0.000  1.000
     occupation matrix ns (before diag.):
       0.167  0.000  0.000
       0.000  0.167  0.000
       0.000  0.000  0.167
     ------------------------ ATOM   18 ------------------------
     Tr[ns( 18)] =   1.00000
     eigenvalues:
       0.167  0.167  0.167
     eigenvectors (columns):
       1.000  0.000  0.000
       0.000  1.000  0.000
       0.000  0.000  1.000
     occupation matrix ns (before diag.):
       0.167  0.000  0.000
       0.000  0.167  0.000
       0.000  0.000  0.167
     ------------------------ ATOM   19 ------------------------
     Tr[ns( 19)] =   1.00000
     eigenvalues:
       0.167  0.167  0.167
     eigenvectors (columns):
       1.000  0.000  0.000
       0.000  1.000  0.000
       0.000  0.000  1.000
     occupation matrix ns (before diag.):
       0.167  0.000  0.000
       0.000  0.167  0.000
       0.000  0.000  0.167
     ------------------------ ATOM   20 ------------------------
     Tr[ns( 20)] =   1.00000
     eigenvalues:
       0.167  0.167  0.167
     eigenvectors (columns):
       1.000  0.000  0.000
       0.000  1.000  0.000
       0.000  0.000  1.000
     occupation matrix ns (before diag.):
       0.167  0.000  0.000
       0.000  0.167  0.000
       0.000  0.000  0.167
     ------------------------ ATOM   21 ------------------------
     Tr[ns( 21)] =   3.00000
     eigenvalues:
       0.500  0.500  0.500
     eigenvectors (columns):
       1.000  0.000  0.000
       0.000  1.000  0.000
       0.000  0.000  1.000
     occupation matrix ns (before diag.):
       0.500  0.000  0.000
       0.000  0.500  0.000
       0.000  0.000  0.500
     ------------------------ ATOM   22 ------------------------
     Tr[ns( 22)] =   3.00000
     eigenvalues:
       0.500  0.500  0.500
     eigenvectors (columns):
       1.000  0.000  0.000
       0.000  1.000  0.000
       0.000  0.000  1.000
     occupation matrix ns (before diag.):
       0.500  0.000  0.000
       0.000  0.500  0.000
       0.000  0.000  0.500
     ------------------------ ATOM   23 ------------------------
     Tr[ns( 23)] =   3.00000
     eigenvalues:
       0.500  0.500  0.500
     eigenvectors (columns):
       1.000  0.000  0.000
       0.000  1.000  0.000
       0.000  0.000  1.000
     occupation matrix ns (before diag.):
       0.500  0.000  0.000
       0.000  0.500  0.000
       0.000  0.000  0.500
     ------------------------ ATOM   24 ------------------------
     Tr[ns( 24)] =   3.00000
     eigenvalues:
       0.500  0.500  0.500
     eigenvectors (columns):
       1.000  0.000  0.000
       0.000  1.000  0.000
       0.000  0.000  1.000
     occupation matrix ns (before diag.):
       0.500  0.000  0.000
       0.000  0.500  0.000
       0.000  0.000  0.500
     ------------------------ ATOM   25 ------------------------
     Tr[ns( 25)] =   1.00000
     eigenvalues:
       0.167  0.167  0.167
     eigenvectors (columns):
       1.000  0.000  0.000
       0.000  1.000  0.000
       0.000  0.000  1.000
     occupation matrix ns (before diag.):
       0.167  0.000  0.000
       0.000  0.167  0.000
       0.000  0.000  0.167
     ------------------------ ATOM   26 ------------------------
     Tr[ns( 26)] =   1.00000
     eigenvalues:
       0.167  0.167  0.167
     eigenvectors (columns):
       1.000  0.000  0.000
       0.000  1.000  0.000
       0.000  0.000  1.000
     occupation matrix ns (before diag.):
       0.167  0.000  0.000
       0.000  0.167  0.000
       0.000  0.000  0.167
     ------------------------ ATOM   27 ------------------------
     Tr[ns( 27)] =   1.00000
     eigenvalues:
       0.167  0.167  0.167
     eigenvectors (columns):
       1.000  0.000  0.000
       0.000  1.000  0.000
       0.000  0.000  1.000
     occupation matrix ns (before diag.):
       0.167  0.000  0.000
       0.000  0.167  0.000
       0.000  0.000  0.167
     ------------------------ ATOM   28 ------------------------
     Tr[ns( 28)] =   1.00000
     eigenvalues:
       0.167  0.167  0.167
     eigenvectors (columns):
       1.000  0.000  0.000
       0.000  1.000  0.000
       0.000  0.000  1.000
     occupation matrix ns (before diag.):
       0.167  0.000  0.000
       0.000  0.167  0.000
       0.000  0.000  0.167
     ------------------------ ATOM   29 ------------------------
     Tr[ns( 29)] =   3.00000
     eigenvalues:
       0.500  0.500  0.500
     eigenvectors (columns):
       1.000  0.000  0.000
       0.000  1.000  0.000
       0.000  0.000  1.000
     occupation matrix ns (before diag.):
       0.500  0.000  0.000
       0.000  0.500  0.000
       0.000  0.000  0.500
     ------------------------ ATOM   30 ------------------------
     Tr[ns( 30)] =   3.00000
     eigenvalues:
       0.500  0.500  0.500
     eigenvectors (columns):
       1.000  0.000  0.000
       0.000  1.000  0.000
       0.000  0.000  1.000
     occupation matrix ns (before diag.):
       0.500  0.000  0.000
       0.000  0.500  0.000
       0.000  0.000  0.500
     ------------------------ ATOM   31 ------------------------
     Tr[ns( 31)] =   3.00000
     eigenvalues:
       0.500  0.500  0.500
     eigenvectors (columns):
       1.000  0.000  0.000
       0.000  1.000  0.000
       0.000  0.000  1.000
     occupation matrix ns (before diag.):
       0.500  0.000  0.000
       0.000  0.500  0.000
       0.000  0.000  0.500
     ------------------------ ATOM   32 ------------------------
     Tr[ns( 32)] =   3.00000
     eigenvalues:
       0.500  0.500  0.500
     eigenvectors (columns):
       1.000  0.000  0.000
       0.000  1.000  0.000
       0.000  0.000  1.000
     occupation matrix ns (before diag.):
       0.500  0.000  0.000
       0.000  0.500  0.000
       0.000  0.000  0.500
     ------------------------ ATOM   33 ------------------------
     Tr[ns( 33)] =   1.00000
     eigenvalues:
       0.167  0.167  0.167
     eigenvectors (columns):
       1.000  0.000  0.000
       0.000  1.000  0.000
       0.000  0.000  1.000
     occupation matrix ns (before diag.):
       0.167  0.000  0.000
       0.000  0.167  0.000
       0.000  0.000  0.167
     ------------------------ ATOM   34 ------------------------
     Tr[ns( 34)] =   1.00000
     eigenvalues:
       0.167  0.167  0.167
     eigenvectors (columns):
       1.000  0.000  0.000
       0.000  1.000  0.000
       0.000  0.000  1.000
     occupation matrix ns (before diag.):
       0.167  0.000  0.000
       0.000  0.167  0.000
       0.000  0.000  0.167
     ------------------------ ATOM   35 ------------------------
     Tr[ns( 35)] =   1.00000
     eigenvalues:
       0.167  0.167  0.167
     eigenvectors (columns):
       1.000  0.000  0.000
       0.000  1.000  0.000
       0.000  0.000  1.000
     occupation matrix ns (before diag.):
       0.167  0.000  0.000
       0.000  0.167  0.000
       0.000  0.000  0.167
     ------------------------ ATOM   36 ------------------------
     Tr[ns( 36)] =   1.00000
     eigenvalues:
       0.167  0.167  0.167
     eigenvectors (columns):
       1.000  0.000  0.000
       0.000  1.000  0.000
       0.000  0.000  1.000
     occupation matrix ns (before diag.):
       0.167  0.000  0.000
       0.000  0.167  0.000
       0.000  0.000  0.167
     ------------------------ ATOM   37 ------------------------
     Tr[ns( 37)] =   3.00000
     eigenvalues:
       0.500  0.500  0.500
     eigenvectors (columns):
       1.000  0.000  0.000
       0.000  1.000  0.000
       0.000  0.000  1.000
     occupation matrix ns (before diag.):
       0.500  0.000  0.000
       0.000  0.500  0.000
       0.000  0.000  0.500
     ------------------------ ATOM   38 ------------------------
     Tr[ns( 38)] =   3.00000
     eigenvalues:
       0.500  0.500  0.500
     eigenvectors (columns):
       1.000  0.000  0.000
       0.000  1.000  0.000
       0.000  0.000  1.000
     occupation matrix ns (before diag.):
       0.500  0.000  0.000
       0.000  0.500  0.000
       0.000  0.000  0.500
     ------------------------ ATOM   39 ------------------------
     Tr[ns( 39)] =   3.00000
     eigenvalues:
       0.500  0.500  0.500
     eigenvectors (columns):
       1.000  0.000  0.000
       0.000  1.000  0.000
       0.000  0.000  1.000
     occupation matrix ns (before diag.):
       0.500  0.000  0.000
       0.000  0.500  0.000
       0.000  0.000  0.500
     ------------------------ ATOM   40 ------------------------
     Tr[ns( 40)] =   3.00000
     eigenvalues:
       0.500  0.500  0.500
     eigenvectors (columns):
       1.000  0.000  0.000
       0.000  1.000  0.000
       0.000  0.000  1.000
     occupation matrix ns (before diag.):
       0.500  0.000  0.000
       0.000  0.500  0.000
       0.000  0.000  0.500
     ------------------------ ATOM   41 ------------------------
     Tr[ns( 41)] =   1.00000
     eigenvalues:
       0.167  0.167  0.167
     eigenvectors (columns):
       1.000  0.000  0.000
       0.000  1.000  0.000
       0.000  0.000  1.000
     occupation matrix ns (before diag.):
       0.167  0.000  0.000
       0.000  0.167  0.000
       0.000  0.000  0.167
     ------------------------ ATOM   42 ------------------------
     Tr[ns( 42)] =   1.00000
     eigenvalues:
       0.167  0.167  0.167
     eigenvectors (columns):
       1.000  0.000  0.000
       0.000  1.000  0.000
       0.000  0.000  1.000
     occupation matrix ns (before diag.):
       0.167  0.000  0.000
       0.000  0.167  0.000
       0.000  0.000  0.167
     ------------------------ ATOM   43 ------------------------
     Tr[ns( 43)] =   1.00000
     eigenvalues:
       0.167  0.167  0.167
     eigenvectors (columns):
       1.000  0.000  0.000
       0.000  1.000  0.000
       0.000  0.000  1.000
     occupation matrix ns (before diag.):
       0.167  0.000  0.000
       0.000  0.167  0.000
       0.000  0.000  0.167
     ------------------------ ATOM   44 ------------------------
     Tr[ns( 44)] =   1.00000
     eigenvalues:
       0.167  0.167  0.167
     eigenvectors (columns):
       1.000  0.000  0.000
       0.000  1.000  0.000
       0.000  0.000  1.000
     occupation matrix ns (before diag.):
       0.167  0.000  0.000
       0.000  0.167  0.000
       0.000  0.000  0.167
     ------------------------ ATOM   45 ------------------------
     Tr[ns( 45)] =   3.00000
     eigenvalues:
       0.500  0.500  0.500
     eigenvectors (columns):
       1.000  0.000  0.000
       0.000  1.000  0.000
       0.000  0.000  1.000
     occupation matrix ns (before diag.):
       0.500  0.000  0.000
       0.000  0.500  0.000
       0.000  0.000  0.500
     ------------------------ ATOM   46 ------------------------
     Tr[ns( 46)] =   3.00000
     eigenvalues:
       0.500  0.500  0.500
     eigenvectors (columns):
       1.000  0.000  0.000
       0.000  1.000  0.000
       0.000  0.000  1.000
     occupation matrix ns (before diag.):
       0.500  0.000  0.000
       0.000  0.500  0.000
       0.000  0.000  0.500
     ------------------------ ATOM   47 ------------------------
     Tr[ns( 47)] =   3.00000
     eigenvalues:
       0.500  0.500  0.500
     eigenvectors (columns):
       1.000  0.000  0.000
       0.000  1.000  0.000
       0.000  0.000  1.000
     occupation matrix ns (before diag.):
       0.500  0.000  0.000
       0.000  0.500  0.000
       0.000  0.000  0.500
     ------------------------ ATOM   48 ------------------------
     Tr[ns( 48)] =   3.00000
     eigenvalues:
       0.500  0.500  0.500
     eigenvectors (columns):
       1.000  0.000  0.000
       0.000  1.000  0.000
       0.000  0.000  1.000
     occupation matrix ns (before diag.):
       0.500  0.000  0.000
       0.000  0.500  0.000
       0.000  0.000  0.500
     ------------------------ ATOM   49 ------------------------
     Tr[ns( 49)] =   1.00000
     eigenvalues:
       0.167  0.167  0.167
     eigenvectors (columns):
       1.000  0.000  0.000
       0.000  1.000  0.000
       0.000  0.000  1.000
     occupation matrix ns (before diag.):
       0.167  0.000  0.000
       0.000  0.167  0.000
       0.000  0.000  0.167
     ------------------------ ATOM   50 ------------------------
     Tr[ns( 50)] =   1.00000
     eigenvalues:
       0.167  0.167  0.167
     eigenvectors (columns):
       1.000  0.000  0.000
       0.000  1.000  0.000
       0.000  0.000  1.000
     occupation matrix ns (before diag.):
       0.167  0.000  0.000
       0.000  0.167  0.000
       0.000  0.000  0.167
     ------------------------ ATOM   51 ------------------------
     Tr[ns( 51)] =   1.00000
     eigenvalues:
       0.167  0.167  0.167
     eigenvectors (columns):
       1.000  0.000  0.000
       0.000  1.000  0.000
       0.000  0.000  1.000
     occupation matrix ns (before diag.):
       0.167  0.000  0.000
       0.000  0.167  0.000
       0.000  0.000  0.167
     ------------------------ ATOM   52 ------------------------
     Tr[ns( 52)] =   1.00000
     eigenvalues:
       0.167  0.167  0.167
     eigenvectors (columns):
       1.000  0.000  0.000
       0.000  1.000  0.000
       0.000  0.000  1.000
     occupation matrix ns (before diag.):
       0.167  0.000  0.000
       0.000  0.167  0.000
       0.000  0.000  0.167
     ------------------------ ATOM   53 ------------------------
     Tr[ns( 53)] =   3.00000
     eigenvalues:
       0.500  0.500  0.500
     eigenvectors (columns):
       1.000  0.000  0.000
       0.000  1.000  0.000
       0.000  0.000  1.000
     occupation matrix ns (before diag.):
       0.500  0.000  0.000
       0.000  0.500  0.000
       0.000  0.000  0.500
     ------------------------ ATOM   54 ------------------------
     Tr[ns( 54)] =   3.00000
     eigenvalues:
       0.500  0.500  0.500
     eigenvectors (columns):
       1.000  0.000  0.000
       0.000  1.000  0.000
       0.000  0.000  1.000
     occupation matrix ns (before diag.):
       0.500  0.000  0.000
       0.000  0.500  0.000
       0.000  0.000  0.500
     ------------------------ ATOM   55 ------------------------
     Tr[ns( 55)] =   3.00000
     eigenvalues:
       0.500  0.500  0.500
     eigenvectors (columns):
       1.000  0.000  0.000
       0.000  1.000  0.000
       0.000  0.000  1.000
     occupation matrix ns (before diag.):
       0.500  0.000  0.000
       0.000  0.500  0.000
       0.000  0.000  0.500
     ------------------------ ATOM   56 ------------------------
     Tr[ns( 56)] =   3.00000
     eigenvalues:
       0.500  0.500  0.500
     eigenvectors (columns):
       1.000  0.000  0.000
       0.000  1.000  0.000
       0.000  0.000  1.000
     occupation matrix ns (before diag.):
       0.500  0.000  0.000
       0.000  0.500  0.000
       0.000  0.000  0.500
     ------------------------ ATOM   57 ------------------------
     Tr[ns( 57)] =   1.00000
     eigenvalues:
       0.167  0.167  0.167
     eigenvectors (columns):
       1.000  0.000  0.000
       0.000  1.000  0.000
       0.000  0.000  1.000
     occupation matrix ns (before diag.):
       0.167  0.000  0.000
       0.000  0.167  0.000
       0.000  0.000  0.167
     ------------------------ ATOM   58 ------------------------
     Tr[ns( 58)] =   1.00000
     eigenvalues:
       0.167  0.167  0.167
     eigenvectors (columns):
       1.000  0.000  0.000
       0.000  1.000  0.000
       0.000  0.000  1.000
     occupation matrix ns (before diag.):
       0.167  0.000  0.000
       0.000  0.167  0.000
       0.000  0.000  0.167
     ------------------------ ATOM   59 ------------------------
     Tr[ns( 59)] =   1.00000
     eigenvalues:
       0.167  0.167  0.167
     eigenvectors (columns):
       1.000  0.000  0.000
       0.000  1.000  0.000
       0.000  0.000  1.000
     occupation matrix ns (before diag.):
       0.167  0.000  0.000
       0.000  0.167  0.000
       0.000  0.000  0.167
     ------------------------ ATOM   60 ------------------------
     Tr[ns( 60)] =   1.00000
     eigenvalues:
       0.167  0.167  0.167
     eigenvectors (columns):
       1.000  0.000  0.000
       0.000  1.000  0.000
       0.000  0.000  1.000
     occupation matrix ns (before diag.):
       0.167  0.000  0.000
       0.000  0.167  0.000
       0.000  0.000  0.167
     ------------------------ ATOM   61 ------------------------
     Tr[ns( 61)] =   3.00000
     eigenvalues:
       0.500  0.500  0.500
     eigenvectors (columns):
       1.000  0.000  0.000
       0.000  1.000  0.000
       0.000  0.000  1.000
     occupation matrix ns (before diag.):
       0.500  0.000  0.000
       0.000  0.500  0.000
       0.000  0.000  0.500
     ------------------------ ATOM   62 ------------------------
     Tr[ns( 62)] =   3.00000
     eigenvalues:
       0.500  0.500  0.500
     eigenvectors (columns):
       1.000  0.000  0.000
       0.000  1.000  0.000
       0.000  0.000  1.000
     occupation matrix ns (before diag.):
       0.500  0.000  0.000
       0.000  0.500  0.000
       0.000  0.000  0.500
     ------------------------ ATOM   63 ------------------------
     Tr[ns( 63)] =   3.00000
     eigenvalues:
       0.500  0.500  0.500
     eigenvectors (columns):
       1.000  0.000  0.000
       0.000  1.000  0.000
       0.000  0.000  1.000
     occupation matrix ns (before diag.):
       0.500  0.000  0.000
       0.000  0.500  0.000
       0.000  0.000  0.500
     ------------------------ ATOM   64 ------------------------
     Tr[ns( 64)] =   3.00000
     eigenvalues:
       0.500  0.500  0.500
     eigenvectors (columns):
       1.000  0.000  0.000
       0.000  1.000  0.000
       0.000  0.000  1.000
     occupation matrix ns (before diag.):
       0.500  0.000  0.000
       0.000  0.500  0.000
       0.000  0.000  0.500
     ------------------------ ATOM   65 ------------------------
     Tr[ns( 65)] =   1.00000
     eigenvalues:
       0.167  0.167  0.167
     eigenvectors (columns):
       1.000  0.000  0.000
       0.000  1.000  0.000
       0.000  0.000  1.000
     occupation matrix ns (before diag.):
       0.167  0.000  0.000
       0.000  0.167  0.000
       0.000  0.000  0.167
     ------------------------ ATOM   66 ------------------------
     Tr[ns( 66)] =   1.00000
     eigenvalues:
       0.167  0.167  0.167
     eigenvectors (columns):
       1.000  0.000  0.000
       0.000  1.000  0.000
       0.000  0.000  1.000
     occupation matrix ns (before diag.):
       0.167  0.000  0.000
       0.000  0.167  0.000
       0.000  0.000  0.167
     ------------------------ ATOM   67 ------------------------
     Tr[ns( 67)] =   1.00000
     eigenvalues:
       0.167  0.167  0.167
     eigenvectors (columns):
       1.000  0.000  0.000
       0.000  1.000  0.000
       0.000  0.000  1.000
     occupation matrix ns (before diag.):
       0.167  0.000  0.000
       0.000  0.167  0.000
       0.000  0.000  0.167
     ------------------------ ATOM   68 ------------------------
     Tr[ns( 68)] =   1.00000
     eigenvalues:
       0.167  0.167  0.167
     eigenvectors (columns):
       1.000  0.000  0.000
       0.000  1.000  0.000
       0.000  0.000  1.000
     occupation matrix ns (before diag.):
       0.167  0.000  0.000
       0.000  0.167  0.000
       0.000  0.000  0.167
     ------------------------ ATOM   69 ------------------------
     Tr[ns( 69)] =   3.00000
     eigenvalues:
       0.500  0.500  0.500
     eigenvectors (columns):
       1.000  0.000  0.000
       0.000  1.000  0.000
       0.000  0.000  1.000
     occupation matrix ns (before diag.):
       0.500  0.000  0.000
       0.000  0.500  0.000
       0.000  0.000  0.500
     ------------------------ ATOM   70 ------------------------
     Tr[ns( 70)] =   3.00000
     eigenvalues:
       0.500  0.500  0.500
     eigenvectors (columns):
       1.000  0.000  0.000
       0.000  1.000  0.000
       0.000  0.000  1.000
     occupation matrix ns (before diag.):
       0.500  0.000  0.000
       0.000  0.500  0.000
       0.000  0.000  0.500
     ------------------------ ATOM   71 ------------------------
     Tr[ns( 71)] =   3.00000
     eigenvalues:
       0.500  0.500  0.500
     eigenvectors (columns):
       1.000  0.000  0.000
       0.000  1.000  0.000
       0.000  0.000  1.000
     occupation matrix ns (before diag.):
       0.500  0.000  0.000
       0.000  0.500  0.000
       0.000  0.000  0.500
     ------------------------ ATOM   72 ------------------------
     Tr[ns( 72)] =   3.00000
     eigenvalues:
       0.500  0.500  0.500
     eigenvectors (columns):
       1.000  0.000  0.000
       0.000  1.000  0.000
       0.000  0.000  1.000
     occupation matrix ns (before diag.):
       0.500  0.000  0.000
       0.000  0.500  0.000
       0.000  0.000  0.500
     ------------------------ ATOM   73 ------------------------
     Tr[ns( 73)] =   1.00000
     eigenvalues:
       0.167  0.167  0.167
     eigenvectors (columns):
       1.000  0.000  0.000
       0.000  1.000  0.000
       0.000  0.000  1.000
     occupation matrix ns (before diag.):
       0.167  0.000  0.000
       0.000  0.167  0.000
       0.000  0.000  0.167
     ------------------------ ATOM   74 ------------------------
     Tr[ns( 74)] =   1.00000
     eigenvalues:
       0.167  0.167  0.167
     eigenvectors (columns):
       1.000  0.000  0.000
       0.000  1.000  0.000
       0.000  0.000  1.000
     occupation matrix ns (before diag.):
       0.167  0.000  0.000
       0.000  0.167  0.000
       0.000  0.000  0.167
     ------------------------ ATOM   75 ------------------------
     Tr[ns( 75)] =   1.00000
     eigenvalues:
       0.167  0.167  0.167
     eigenvectors (columns):
       1.000  0.000  0.000
       0.000  1.000  0.000
       0.000  0.000  1.000
     occupation matrix ns (before diag.):
       0.167  0.000  0.000
       0.000  0.167  0.000
       0.000  0.000  0.167
     ------------------------ ATOM   76 ------------------------
     Tr[ns( 76)] =   1.00000
     eigenvalues:
       0.167  0.167  0.167
     eigenvectors (columns):
       1.000  0.000  0.000
       0.000  1.000  0.000
       0.000  0.000  1.000
     occupation matrix ns (before diag.):
       0.167  0.000  0.000
       0.000  0.167  0.000
       0.000  0.000  0.167
     ------------------------ ATOM   77 ------------------------
     Tr[ns( 77)] =   3.00000
     eigenvalues:
       0.500  0.500  0.500
     eigenvectors (columns):
       1.000  0.000  0.000
       0.000  1.000  0.000
       0.000  0.000  1.000
     occupation matrix ns (before diag.):
       0.500  0.000  0.000
       0.000  0.500  0.000
       0.000  0.000  0.500
     ------------------------ ATOM   78 ------------------------
     Tr[ns( 78)] =   3.00000
     eigenvalues:
       0.500  0.500  0.500
     eigenvectors (columns):
       1.000  0.000  0.000
       0.000  1.000  0.000
       0.000  0.000  1.000
     occupation matrix ns (before diag.):
       0.500  0.000  0.000
       0.000  0.500  0.000
       0.000  0.000  0.500
     ------------------------ ATOM   79 ------------------------
     Tr[ns( 79)] =   3.00000
     eigenvalues:
       0.500  0.500  0.500
     eigenvectors (columns):
       1.000  0.000  0.000
       0.000  1.000  0.000
       0.000  0.000  1.000
     occupation matrix ns (before diag.):
       0.500  0.000  0.000
       0.000  0.500  0.000
       0.000  0.000  0.500
     ------------------------ ATOM   80 ------------------------
     Tr[ns( 80)] =   3.00000
     eigenvalues:
       0.500  0.500  0.500
     eigenvectors (columns):
       1.000  0.000  0.000
       0.000  1.000  0.000
       0.000  0.000  1.000
     occupation matrix ns (before diag.):
       0.500  0.000  0.000
       0.000  0.500  0.000
       0.000  0.000  0.500
     ------------------------ ATOM   81 ------------------------
     Tr[ns( 81)] =   1.00000
     eigenvalues:
       0.167  0.167  0.167
     eigenvectors (columns):
       1.000  0.000  0.000
       0.000  1.000  0.000
       0.000  0.000  1.000
     occupation matrix ns (before diag.):
       0.167  0.000  0.000
       0.000  0.167  0.000
       0.000  0.000  0.167
     ------------------------ ATOM   82 ------------------------
     Tr[ns( 82)] =   1.00000
     eigenvalues:
       0.167  0.167  0.167
     eigenvectors (columns):
       1.000  0.000  0.000
       0.000  1.000  0.000
       0.000  0.000  1.000
     occupation matrix ns (before diag.):
       0.167  0.000  0.000
       0.000  0.167  0.000
       0.000  0.000  0.167
     ------------------------ ATOM   83 ------------------------
     Tr[ns( 83)] =   1.00000
     eigenvalues:
       0.167  0.167  0.167
     eigenvectors (columns):
       1.000  0.000  0.000
       0.000  1.000  0.000
       0.000  0.000  1.000
     occupation matrix ns (before diag.):
       0.167  0.000  0.000
       0.000  0.167  0.000
       0.000  0.000  0.167
     ------------------------ ATOM   84 ------------------------
     Tr[ns( 84)] =   1.00000
     eigenvalues:
       0.167  0.167  0.167
     eigenvectors (columns):
       1.000  0.000  0.000
       0.000  1.000  0.000
       0.000  0.000  1.000
     occupation matrix ns (before diag.):
       0.167  0.000  0.000
       0.000  0.167  0.000
       0.000  0.000  0.167
     ------------------------ ATOM   85 ------------------------
     Tr[ns( 85)] =   3.00000
     eigenvalues:
       0.500  0.500  0.500
     eigenvectors (columns):
       1.000  0.000  0.000
       0.000  1.000  0.000
       0.000  0.000  1.000
     occupation matrix ns (before diag.):
       0.500  0.000  0.000
       0.000  0.500  0.000
       0.000  0.000  0.500
     ------------------------ ATOM   86 ------------------------
     Tr[ns( 86)] =   3.00000
     eigenvalues:
       0.500  0.500  0.500
     eigenvectors (columns):
       1.000  0.000  0.000
       0.000  1.000  0.000
       0.000  0.000  1.000
     occupation matrix ns (before diag.):
       0.500  0.000  0.000
       0.000  0.500  0.000
       0.000  0.000  0.500
     ------------------------ ATOM   87 ------------------------
     Tr[ns( 87)] =   3.00000
     eigenvalues:
       0.500  0.500  0.500
     eigenvectors (columns):
       1.000  0.000  0.000
       0.000  1.000  0.000
       0.000  0.000  1.000
     occupation matrix ns (before diag.):
       0.500  0.000  0.000
       0.000  0.500  0.000
       0.000  0.000  0.500
     ------------------------ ATOM   88 ------------------------
     Tr[ns( 88)] =   3.00000
     eigenvalues:
       0.500  0.500  0.500
     eigenvectors (columns):
       1.000  0.000  0.000
       0.000  1.000  0.000
       0.000  0.000  1.000
     occupation matrix ns (before diag.):
       0.500  0.000  0.000
       0.000  0.500  0.000
       0.000  0.000  0.500
     ------------------------ ATOM   89 ------------------------
     Tr[ns( 89)] =   1.00000
     eigenvalues:
       0.167  0.167  0.167
     eigenvectors (columns):
       1.000  0.000  0.000
       0.000  1.000  0.000
       0.000  0.000  1.000
     occupation matrix ns (before diag.):
       0.167  0.000  0.000
       0.000  0.167  0.000
       0.000  0.000  0.167
     ------------------------ ATOM   90 ------------------------
     Tr[ns( 90)] =   1.00000
     eigenvalues:
       0.167  0.167  0.167
     eigenvectors (columns):
       1.000  0.000  0.000
       0.000  1.000  0.000
       0.000  0.000  1.000
     occupation matrix ns (before diag.):
       0.167  0.000  0.000
       0.000  0.167  0.000
       0.000  0.000  0.167
     ------------------------ ATOM   91 ------------------------
     Tr[ns( 91)] =   1.00000
     eigenvalues:
       0.167  0.167  0.167
     eigenvectors (columns):
       1.000  0.000  0.000
       0.000  1.000  0.000
       0.000  0.000  1.000
     occupation matrix ns (before diag.):
       0.167  0.000  0.000
       0.000  0.167  0.000
       0.000  0.000  0.167
     ------------------------ ATOM   92 ------------------------
     Tr[ns( 92)] =   1.00000
     eigenvalues:
       0.167  0.167  0.167
     eigenvectors (columns):
       1.000  0.000  0.000
       0.000  1.000  0.000
       0.000  0.000  1.000
     occupation matrix ns (before diag.):
       0.167  0.000  0.000
       0.000  0.167  0.000
       0.000  0.000  0.167
     ------------------------ ATOM   93 ------------------------
     Tr[ns( 93)] =   3.00000
     eigenvalues:
       0.500  0.500  0.500
     eigenvectors (columns):
       1.000  0.000  0.000
       0.000  1.000  0.000
       0.000  0.000  1.000
     occupation matrix ns (before diag.):
       0.500  0.000  0.000
       0.000  0.500  0.000
       0.000  0.000  0.500
     ------------------------ ATOM   94 ------------------------
     Tr[ns( 94)] =   3.00000
     eigenvalues:
       0.500  0.500  0.500
     eigenvectors (columns):
       1.000  0.000  0.000
       0.000  1.000  0.000
       0.000  0.000  1.000
     occupation matrix ns (before diag.):
       0.500  0.000  0.000
       0.000  0.500  0.000
       0.000  0.000  0.500
     ------------------------ ATOM   95 ------------------------
     Tr[ns( 95)] =   3.00000
     eigenvalues:
       0.500  0.500  0.500
     eigenvectors (columns):
       1.000  0.000  0.000
       0.000  1.000  0.000
       0.000  0.000  1.000
     occupation matrix ns (before diag.):
       0.500  0.000  0.000
       0.000  0.500  0.000
       0.000  0.000  0.500
     ------------------------ ATOM   96 ------------------------
     Tr[ns( 96)] =   3.00000
     eigenvalues:
       0.500  0.500  0.500
     eigenvectors (columns):
       1.000  0.000  0.000
       0.000  1.000  0.000
       0.000  0.000  1.000
     occupation matrix ns (before diag.):
       0.500  0.000  0.000
       0.000  0.500  0.000
       0.000  0.000  0.500
     ------------------------ ATOM   97 ------------------------
     Tr[ns( 97)] =   1.00000
     eigenvalues:
       0.167  0.167  0.167
     eigenvectors (columns):
       1.000  0.000  0.000
       0.000  1.000  0.000
       0.000  0.000  1.000
     occupation matrix ns (before diag.):
       0.167  0.000  0.000
       0.000  0.167  0.000
       0.000  0.000  0.167
     ------------------------ ATOM   98 ------------------------
     Tr[ns( 98)] =   1.00000
     eigenvalues:
       0.167  0.167  0.167
     eigenvectors (columns):
       1.000  0.000  0.000
       0.000  1.000  0.000
       0.000  0.000  1.000
     occupation matrix ns (before diag.):
       0.167  0.000  0.000
       0.000  0.167  0.000
       0.000  0.000  0.167
     ------------------------ ATOM   99 ------------------------
     Tr[ns( 99)] =   1.00000
     eigenvalues:
       0.167  0.167  0.167
     eigenvectors (columns):
       1.000  0.000  0.000
       0.000  1.000  0.000
       0.000  0.000  1.000
     occupation matrix ns (before diag.):
       0.167  0.000  0.000
       0.000  0.167  0.000
       0.000  0.000  0.167
     ------------------------ ATOM  100 ------------------------
     Tr[ns(100)] =   1.00000
     eigenvalues:
       0.167  0.167  0.167
     eigenvectors (columns):
       1.000  0.000  0.000
       0.000  1.000  0.000
       0.000  0.000  1.000
     occupation matrix ns (before diag.):
       0.167  0.000  0.000
       0.000  0.167  0.000
       0.000  0.000  0.167
     ------------------------ ATOM  101 ------------------------
     Tr[ns(101)] =   3.00000
     eigenvalues:
       0.500  0.500  0.500
     eigenvectors (columns):
       1.000  0.000  0.000
       0.000  1.000  0.000
       0.000  0.000  1.000
     occupation matrix ns (before diag.):
       0.500  0.000  0.000
       0.000  0.500  0.000
       0.000  0.000  0.500
     ------------------------ ATOM  102 ------------------------
     Tr[ns(102)] =   3.00000
     eigenvalues:
       0.500  0.500  0.500
     eigenvectors (columns):
       1.000  0.000  0.000
       0.000  1.000  0.000
       0.000  0.000  1.000
     occupation matrix ns (before diag.):
       0.500  0.000  0.000
       0.000  0.500  0.000
       0.000  0.000  0.500
     ------------------------ ATOM  103 ------------------------
     Tr[ns(103)] =   3.00000
     eigenvalues:
       0.500  0.500  0.500
     eigenvectors (columns):
       1.000  0.000  0.000
       0.000  1.000  0.000
       0.000  0.000  1.000
     occupation matrix ns (before diag.):
       0.500  0.000  0.000
       0.000  0.500  0.000
       0.000  0.000  0.500
     ------------------------ ATOM  104 ------------------------
     Tr[ns(104)] =   3.00000
     eigenvalues:
       0.500  0.500  0.500
     eigenvectors (columns):
       1.000  0.000  0.000
       0.000  1.000  0.000
       0.000  0.000  1.000
     occupation matrix ns (before diag.):
       0.500  0.000  0.000
       0.000  0.500  0.000
       0.000  0.000  0.500
     ------------------------ ATOM  105 ------------------------
     Tr[ns(105)] =   1.00000
     eigenvalues:
       0.167  0.167  0.167
     eigenvectors (columns):
       1.000  0.000  0.000
       0.000  1.000  0.000
       0.000  0.000  1.000
     occupation matrix ns (before diag.):
       0.167  0.000  0.000
       0.000  0.167  0.000
       0.000  0.000  0.167
     ------------------------ ATOM  106 ------------------------
     Tr[ns(106)] =   1.00000
     eigenvalues:
       0.167  0.167  0.167
     eigenvectors (columns):
       1.000  0.000  0.000
       0.000  1.000  0.000
       0.000  0.000  1.000
     occupation matrix ns (before diag.):
       0.167  0.000  0.000
       0.000  0.167  0.000
       0.000  0.000  0.167
     ------------------------ ATOM  107 ------------------------
     Tr[ns(107)] =   1.00000
     eigenvalues:
       0.167  0.167  0.167
     eigenvectors (columns):
       1.000  0.000  0.000
       0.000  1.000  0.000
       0.000  0.000  1.000
     occupation matrix ns (before diag.):
       0.167  0.000  0.000
       0.000  0.167  0.000
       0.000  0.000  0.167
     ------------------------ ATOM  108 ------------------------
     Tr[ns(108)] =   1.00000
     eigenvalues:
       0.167  0.167  0.167
     eigenvectors (columns):
       1.000  0.000  0.000
       0.000  1.000  0.000
       0.000  0.000  1.000
     occupation matrix ns (before diag.):
       0.167  0.000  0.000
       0.000  0.167  0.000
       0.000  0.000  0.167
     ------------------------ ATOM  109 ------------------------
     Tr[ns(109)] =   3.00000
     eigenvalues:
       0.500  0.500  0.500
     eigenvectors (columns):
       1.000  0.000  0.000
       0.000  1.000  0.000
       0.000  0.000  1.000
     occupation matrix ns (before diag.):
       0.500  0.000  0.000
       0.000  0.500  0.000
       0.000  0.000  0.500
     ------------------------ ATOM  110 ------------------------
     Tr[ns(110)] =   3.00000
     eigenvalues:
       0.500  0.500  0.500
     eigenvectors (columns):
       1.000  0.000  0.000
       0.000  1.000  0.000
       0.000  0.000  1.000
     occupation matrix ns (before diag.):
       0.500  0.000  0.000
       0.000  0.500  0.000
       0.000  0.000  0.500
     ------------------------ ATOM  111 ------------------------
     Tr[ns(111)] =   3.00000
     eigenvalues:
       0.500  0.500  0.500
     eigenvectors (columns):
       1.000  0.000  0.000
       0.000  1.000  0.000
       0.000  0.000  1.000
     occupation matrix ns (before diag.):
       0.500  0.000  0.000
       0.000  0.500  0.000
       0.000  0.000  0.500
     ------------------------ ATOM  112 ------------------------
     Tr[ns(112)] =   3.00000
     eigenvalues:
       0.500  0.500  0.500
     eigenvectors (columns):
       1.000  0.000  0.000
       0.000  1.000  0.000
       0.000  0.000  1.000
     occupation matrix ns (before diag.):
       0.500  0.000  0.000
       0.000  0.500  0.000
       0.000  0.000  0.500
     ------------------------ ATOM  113 ------------------------
     Tr[ns(113)] =   1.00000
     eigenvalues:
       0.167  0.167  0.167
     eigenvectors (columns):
       1.000  0.000  0.000
       0.000  1.000  0.000
       0.000  0.000  1.000
     occupation matrix ns (before diag.):
       0.167  0.000  0.000
       0.000  0.167  0.000
       0.000  0.000  0.167
     ------------------------ ATOM  114 ------------------------
     Tr[ns(114)] =   1.00000
     eigenvalues:
       0.167  0.167  0.167
     eigenvectors (columns):
       1.000  0.000  0.000
       0.000  1.000  0.000
       0.000  0.000  1.000
     occupation matrix ns (before diag.):
       0.167  0.000  0.000
       0.000  0.167  0.000
       0.000  0.000  0.167
     ------------------------ ATOM  115 ------------------------
     Tr[ns(115)] =   1.00000
     eigenvalues:
       0.167  0.167  0.167
     eigenvectors (columns):
       1.000  0.000  0.000
       0.000  1.000  0.000
       0.000  0.000  1.000
     occupation matrix ns (before diag.):
       0.167  0.000  0.000
       0.000  0.167  0.000
       0.000  0.000  0.167
     ------------------------ ATOM  116 ------------------------
     Tr[ns(116)] =   1.00000
     eigenvalues:
       0.167  0.167  0.167
     eigenvectors (columns):
       1.000  0.000  0.000
       0.000  1.000  0.000
       0.000  0.000  1.000
     occupation matrix ns (before diag.):
       0.167  0.000  0.000
       0.000  0.167  0.000
       0.000  0.000  0.167
     ------------------------ ATOM  117 ------------------------
     Tr[ns(117)] =   3.00000
     eigenvalues:
       0.500  0.500  0.500
     eigenvectors (columns):
       1.000  0.000  0.000
       0.000  1.000  0.000
       0.000  0.000  1.000
     occupation matrix ns (before diag.):
       0.500  0.000  0.000
       0.000  0.500  0.000
       0.000  0.000  0.500
     ------------------------ ATOM  118 ------------------------
     Tr[ns(118)] =   3.00000
     eigenvalues:
       0.500  0.500  0.500
     eigenvectors (columns):
       1.000  0.000  0.000
       0.000  1.000  0.000
       0.000  0.000  1.000
     occupation matrix ns (before diag.):
       0.500  0.000  0.000
       0.000  0.500  0.000
       0.000  0.000  0.500
     ------------------------ ATOM  119 ------------------------
     Tr[ns(119)] =   3.00000
     eigenvalues:
       0.500  0.500  0.500
     eigenvectors (columns):
       1.000  0.000  0.000
       0.000  1.000  0.000
       0.000  0.000  1.000
     occupation matrix ns (before diag.):
       0.500  0.000  0.000
       0.000  0.500  0.000
       0.000  0.000  0.500
     ------------------------ ATOM  120 ------------------------
     Tr[ns(120)] =   3.00000
     eigenvalues:
       0.500  0.500  0.500
     eigenvectors (columns):
       1.000  0.000  0.000
       0.000  1.000  0.000
       0.000  0.000  1.000
     occupation matrix ns (before diag.):
       0.500  0.000  0.000
       0.000  0.500  0.000
       0.000  0.000  0.500
     ------------------------ ATOM  121 ------------------------
     Tr[ns(121)] =   1.00000
     eigenvalues:
       0.167  0.167  0.167
     eigenvectors (columns):
       1.000  0.000  0.000
       0.000  1.000  0.000
       0.000  0.000  1.000
     occupation matrix ns (before diag.):
       0.167  0.000  0.000
       0.000  0.167  0.000
       0.000  0.000  0.167
     ------------------------ ATOM  122 ------------------------
     Tr[ns(122)] =   1.00000
     eigenvalues:
       0.167  0.167  0.167
     eigenvectors (columns):
       1.000  0.000  0.000
       0.000  1.000  0.000
       0.000  0.000  1.000
     occupation matrix ns (before diag.):
       0.167  0.000  0.000
       0.000  0.167  0.000
       0.000  0.000  0.167
     ------------------------ ATOM  123 ------------------------
     Tr[ns(123)] =   1.00000
     eigenvalues:
       0.167  0.167  0.167
     eigenvectors (columns):
       1.000  0.000  0.000
       0.000  1.000  0.000
       0.000  0.000  1.000
     occupation matrix ns (before diag.):
       0.167  0.000  0.000
       0.000  0.167  0.000
       0.000  0.000  0.167
     ------------------------ ATOM  124 ------------------------
     Tr[ns(124)] =   1.00000
     eigenvalues:
       0.167  0.167  0.167
     eigenvectors (columns):
       1.000  0.000  0.000
       0.000  1.000  0.000
       0.000  0.000  1.000
     occupation matrix ns (before diag.):
       0.167  0.000  0.000
       0.000  0.167  0.000
       0.000  0.000  0.167
     ------------------------ ATOM  125 ------------------------
     Tr[ns(125)] =   3.00000
     eigenvalues:
       0.500  0.500  0.500
     eigenvectors (columns):
       1.000  0.000  0.000
       0.000  1.000  0.000
       0.000  0.000  1.000
     occupation matrix ns (before diag.):
       0.500  0.000  0.000
       0.000  0.500  0.000
       0.000  0.000  0.500
     ------------------------ ATOM  126 ------------------------
     Tr[ns(126)] =   3.00000
     eigenvalues:
       0.500  0.500  0.500
     eigenvectors (columns):
       1.000  0.000  0.000
       0.000  1.000  0.000
       0.000  0.000  1.000
     occupation matrix ns (before diag.):
       0.500  0.000  0.000
       0.000  0.500  0.000
       0.000  0.000  0.500
     ------------------------ ATOM  127 ------------------------
     Tr[ns(127)] =   3.00000
     eigenvalues:
       0.500  0.500  0.500
     eigenvectors (columns):
       1.000  0.000  0.000
       0.000  1.000  0.000
       0.000  0.000  1.000
     occupation matrix ns (before diag.):
       0.500  0.000  0.000
       0.000  0.500  0.000
       0.000  0.000  0.500
     ------------------------ ATOM  128 ------------------------
     Tr[ns(128)] =   3.00000
     eigenvalues:
       0.500  0.500  0.500
     eigenvectors (columns):
       1.000  0.000  0.000
       0.000  1.000  0.000
       0.000  0.000  1.000
     occupation matrix ns (before diag.):
       0.500  0.000  0.000
       0.000  0.500  0.000
       0.000  0.000  0.500
     ------------------------ ATOM  129 ------------------------
     Tr[ns(129)] =   1.00000
     eigenvalues:
       0.167  0.167  0.167
     eigenvectors (columns):
       1.000  0.000  0.000
       0.000  1.000  0.000
       0.000  0.000  1.000
     occupation matrix ns (before diag.):
       0.167  0.000  0.000
       0.000  0.167  0.000
       0.000  0.000  0.167
     ------------------------ ATOM  130 ------------------------
     Tr[ns(130)] =   1.00000
     eigenvalues:
       0.167  0.167  0.167
     eigenvectors (columns):
       1.000  0.000  0.000
       0.000  1.000  0.000
       0.000  0.000  1.000
     occupation matrix ns (before diag.):
       0.167  0.000  0.000
       0.000  0.167  0.000
       0.000  0.000  0.167
     ------------------------ ATOM  131 ------------------------
     Tr[ns(131)] =   1.00000
     eigenvalues:
       0.167  0.167  0.167
     eigenvectors (columns):
       1.000  0.000  0.000
       0.000  1.000  0.000
       0.000  0.000  1.000
     occupation matrix ns (before diag.):
       0.167  0.000  0.000
       0.000  0.167  0.000
       0.000  0.000  0.167
     ------------------------ ATOM  132 ------------------------
     Tr[ns(132)] =   1.00000
     eigenvalues:
       0.167  0.167  0.167
     eigenvectors (columns):
       1.000  0.000  0.000
       0.000  1.000  0.000
       0.000  0.000  1.000
     occupation matrix ns (before diag.):
       0.167  0.000  0.000
       0.000  0.167  0.000
       0.000  0.000  0.167
     ------------------------ ATOM  133 ------------------------
     Tr[ns(133)] =   3.00000
     eigenvalues:
       0.500  0.500  0.500
     eigenvectors (columns):
       1.000  0.000  0.000
       0.000  1.000  0.000
       0.000  0.000  1.000
     occupation matrix ns (before diag.):
       0.500  0.000  0.000
       0.000  0.500  0.000
       0.000  0.000  0.500
     ------------------------ ATOM  134 ------------------------
     Tr[ns(134)] =   3.00000
     eigenvalues:
       0.500  0.500  0.500
     eigenvectors (columns):
       1.000  0.000  0.000
       0.000  1.000  0.000
       0.000  0.000  1.000
     occupation matrix ns (before diag.):
       0.500  0.000  0.000
       0.000  0.500  0.000
       0.000  0.000  0.500
     ------------------------ ATOM  135 ------------------------
     Tr[ns(135)] =   3.00000
     eigenvalues:
       0.500  0.500  0.500
     eigenvectors (columns):
       1.000  0.000  0.000
       0.000  1.000  0.000
       0.000  0.000  1.000
     occupation matrix ns (before diag.):
       0.500  0.000  0.000
       0.000  0.500  0.000
       0.000  0.000  0.500
     ------------------------ ATOM  136 ------------------------
     Tr[ns(136)] =   3.00000
     eigenvalues:
       0.500  0.500  0.500
     eigenvectors (columns):
       1.000  0.000  0.000
       0.000  1.000  0.000
       0.000  0.000  1.000
     occupation matrix ns (before diag.):
       0.500  0.000  0.000
       0.000  0.500  0.000
       0.000  0.000  0.500
     ------------------------ ATOM  137 ------------------------
     Tr[ns(137)] =   1.00000
     eigenvalues:
       0.167  0.167  0.167
     eigenvectors (columns):
       1.000  0.000  0.000
       0.000  1.000  0.000
       0.000  0.000  1.000
     occupation matrix ns (before diag.):
       0.167  0.000  0.000
       0.000  0.167  0.000
       0.000  0.000  0.167
     ------------------------ ATOM  138 ------------------------
     Tr[ns(138)] =   1.00000
     eigenvalues:
       0.167  0.167  0.167
     eigenvectors (columns):
       1.000  0.000  0.000
       0.000  1.000  0.000
       0.000  0.000  1.000
     occupation matrix ns (before diag.):
       0.167  0.000  0.000
       0.000  0.167  0.000
       0.000  0.000  0.167
     ------------------------ ATOM  139 ------------------------
     Tr[ns(139)] =   1.00000
     eigenvalues:
       0.167  0.167  0.167
     eigenvectors (columns):
       1.000  0.000  0.000
       0.000  1.000  0.000
       0.000  0.000  1.000
     occupation matrix ns (before diag.):
       0.167  0.000  0.000
       0.000  0.167  0.000
       0.000  0.000  0.167
     ------------------------ ATOM  140 ------------------------
     Tr[ns(140)] =   1.00000
     eigenvalues:
       0.167  0.167  0.167
     eigenvectors (columns):
       1.000  0.000  0.000
       0.000  1.000  0.000
       0.000  0.000  1.000
     occupation matrix ns (before diag.):
       0.167  0.000  0.000
       0.000  0.167  0.000
       0.000  0.000  0.167
     ------------------------ ATOM  141 ------------------------
     Tr[ns(141)] =   3.00000
     eigenvalues:
       0.500  0.500  0.500
     eigenvectors (columns):
       1.000  0.000  0.000
       0.000  1.000  0.000
       0.000  0.000  1.000
     occupation matrix ns (before diag.):
       0.500  0.000  0.000
       0.000  0.500  0.000
       0.000  0.000  0.500
     ------------------------ ATOM  142 ------------------------
     Tr[ns(142)] =   3.00000
     eigenvalues:
       0.500  0.500  0.500
     eigenvectors (columns):
       1.000  0.000  0.000
       0.000  1.000  0.000
       0.000  0.000  1.000
     occupation matrix ns (before diag.):
       0.500  0.000  0.000
       0.000  0.500  0.000
       0.000  0.000  0.500
     ------------------------ ATOM  143 ------------------------
     Tr[ns(143)] =   3.00000
     eigenvalues:
       0.500  0.500  0.500
     eigenvectors (columns):
       1.000  0.000  0.000
       0.000  1.000  0.000
       0.000  0.000  1.000
     occupation matrix ns (before diag.):
       0.500  0.000  0.000
       0.000  0.500  0.000
       0.000  0.000  0.500
     ------------------------ ATOM  144 ------------------------
     Tr[ns(144)] =   3.00000
     eigenvalues:
       0.500  0.500  0.500
     eigenvectors (columns):
       1.000  0.000  0.000
       0.000  1.000  0.000
       0.000  0.000  1.000
     occupation matrix ns (before diag.):
       0.500  0.000  0.000
       0.000  0.500  0.000
       0.000  0.000  0.500
     ------------------------ ATOM  145 ------------------------
     Tr[ns(145)] =   1.00000
     eigenvalues:
       0.167  0.167  0.167
     eigenvectors (columns):
       1.000  0.000  0.000
       0.000  1.000  0.000
       0.000  0.000  1.000
     occupation matrix ns (before diag.):
       0.167  0.000  0.000
       0.000  0.167  0.000
       0.000  0.000  0.167
     ------------------------ ATOM  146 ------------------------
     Tr[ns(146)] =   1.00000
     eigenvalues:
       0.167  0.167  0.167
     eigenvectors (columns):
       1.000  0.000  0.000
       0.000  1.000  0.000
       0.000  0.000  1.000
     occupation matrix ns (before diag.):
       0.167  0.000  0.000
       0.000  0.167  0.000
       0.000  0.000  0.167
     ------------------------ ATOM  147 ------------------------
     Tr[ns(147)] =   1.00000
     eigenvalues:
       0.167  0.167  0.167
     eigenvectors (columns):
       1.000  0.000  0.000
       0.000  1.000  0.000
       0.000  0.000  1.000
     occupation matrix ns (before diag.):
       0.167  0.000  0.000
       0.000  0.167  0.000
       0.000  0.000  0.167
     ------------------------ ATOM  148 ------------------------
     Tr[ns(148)] =   1.00000
     eigenvalues:
       0.167  0.167  0.167
     eigenvectors (columns):
       1.000  0.000  0.000
       0.000  1.000  0.000
       0.000  0.000  1.000
     occupation matrix ns (before diag.):
       0.167  0.000  0.000
       0.000  0.167  0.000
       0.000  0.000  0.167
     ------------------------ ATOM  149 ------------------------
     Tr[ns(149)] =   3.00000
     eigenvalues:
       0.500  0.500  0.500
     eigenvectors (columns):
       1.000  0.000  0.000
       0.000  1.000  0.000
       0.000  0.000  1.000
     occupation matrix ns (before diag.):
       0.500  0.000  0.000
       0.000  0.500  0.000
       0.000  0.000  0.500
     ------------------------ ATOM  150 ------------------------
     Tr[ns(150)] =   3.00000
     eigenvalues:
       0.500  0.500  0.500
     eigenvectors (columns):
       1.000  0.000  0.000
       0.000  1.000  0.000
       0.000  0.000  1.000
     occupation matrix ns (before diag.):
       0.500  0.000  0.000
       0.000  0.500  0.000
       0.000  0.000  0.500
     ------------------------ ATOM  151 ------------------------
     Tr[ns(151)] =   3.00000
     eigenvalues:
       0.500  0.500  0.500
     eigenvectors (columns):
       1.000  0.000  0.000
       0.000  1.000  0.000
       0.000  0.000  1.000
     occupation matrix ns (before diag.):
       0.500  0.000  0.000
       0.000  0.500  0.000
       0.000  0.000  0.500
     ------------------------ ATOM  152 ------------------------
[...]
   -19.5170 -19.5170 -19.5167 -19.5166 -19.5159 -19.5158 -19.5155 -19.5151
   -19.5151 -19.5150 -19.5148 -19.5147 -19.5146 -19.5142 -19.5141 -19.5138
   -19.5135 -19.5130 -19.5129 -19.5126 -19.5126 -19.5125 -19.5124 -19.5122
   -19.5121 -19.5120 -19.5119 -19.5118 -19.5116 -19.5107 -19.5106 -19.5104
   -19.5104 -19.5101 -19.5099 -19.5095 -19.5094 -19.5092 -19.5091 -19.5090
   -19.5088 -19.5087 -19.5085 -19.5080 -19.5080 -19.5078 -19.5077 -19.5076
   -19.5072 -19.5072 -19.5071 -19.5070 -19.5069 -19.5064 -19.5063 -19.5063
   -19.5062 -19.5061 -19.5060 -19.5059 -19.5059 -19.5055 -19.5053 -19.5053
   -19.5049 -19.5048 -19.5045 -19.5043 -19.5041 -19.5039 -19.5037 -19.5036
   -19.5030 -19.5023 -19.5021 -19.5018 -19.5018 -19.5018 -19.5018 -19.5013
   -19.5012 -19.5011 -19.5010 -19.5008 -19.5007 -19.5006 -19.5005 -19.5001
   -19.4998 -19.4996 -19.4993 -19.4992 -19.4991 -19.4989 -19.4986 -19.4985
   -19.4985 -19.4981 -19.4979 -19.4976 -19.4975 -19.4971 -19.4965 -19.4963
   -19.4957 -19.4956 -19.4950 -19.4946 -19.4945 -19.4942 -19.4941 -19.4939
   -19.4937 -19.4933 -19.4932 -19.4930 -19.4928 -19.4922 -19.4921 -19.4919
   -19.4914 -19.4911 -19.4907 -19.4905 -19.4904 -19.4898 -19.4898 -19.4897
   -19.4896 -19.4892 -19.4890 -19.4886 -19.4885 -19.4883 -19.4881 -19.4879
   -19.4878 -19.4877 -19.4874 -19.4874 -19.4873 -19.4872 -19.4870 -19.4869
   -19.4868 -19.4866 -19.4862 -19.4856 -19.4849 -19.4845 -19.4840 -19.4840
   -19.4838 -19.4833 -19.4831 -19.4829 -19.4826 -19.4824 -19.4823 -19.4823
   -19.4818 -19.4815 -19.4806 -19.4802 -19.4797 -19.4796 -19.4794 -19.4791
   -19.4790 -19.4789 -19.4788 -19.4784 -19.4771 -19.4770 -19.4769 -19.4768
   -19.4760 -19.4755 -19.4755 -19.4743 -19.4731 -19.4722 -19.4714 -19.4714
   -19.4698 -19.4697 -19.4688 -19.4677 -19.4671 -19.4644 -19.4638 -19.4636
   -19.4630 -19.4626 -19.4612 -19.4589 -19.4581 -19.4540 -19.4537 -19.4529
   -19.4523 -19.4483 -19.4367 -19.4242  -7.3806  -7.3799  -7.3721  -7.3652
    -7.3606  -7.3587  -7.3524  -7.3508  -7.3460  -7.3445  -7.3373  -7.3362
    -7.3318  -7.3286  -7.3227  -7.3218  -7.3169  -7.3159  -7.3106  -7.3098
    -7.3078  -7.3033  -7.3026  -7.3020  -7.3016  -7.3010  -7.2999  -7.2978
    -7.2972  -7.2961  -7.2958  -7.2956  -7.2945  -7.2928  -7.2920  -7.2908
    -7.2901  -7.2878  -7.2866  -7.2844  -7.2843  -7.2824  -7.2816  -7.2802
    -7.2791  -7.2787  -7.2778  -7.2770  -7.2766  -7.2761  -7.2758  -7.2748
    -7.2740  -7.2738  -7.2700  -7.2695  -7.2688  -7.2673  -7.2663  -7.2629
    -7.2623  -7.2608  -7.2554  -7.2546  -7.2542  -7.2527  -7.2525  -7.2521
    -7.2518  -7.2511  -7.2503  -7.2490  -7.2487  -7.2481  -7.2473  -7.2465
    -7.2457  -7.2446  -7.2431  -7.2428  -7.2427  -7.2414  -7.2412  -7.2411
    -7.2401  -7.2398  -7.2394  -7.2391  -7.2389  -7.2382  -7.2375  -7.2371
    -7.2365  -7.2362  -7.2357  -7.2353  -7.2349  -7.2343  -7.2339  -7.2331
    -7.2327  -7.2323  -7.2315  -7.2306  -7.2302  -7.2300  -7.2294  -7.2287
    -7.2281  -7.2276  -7.2272  -7.2271  -7.2262  -7.2256  -7.2250  -7.2246
    -7.2236  -7.2234  -7.2231  -7.2223  -7.2221  -7.2217  -7.2213  -7.2211
    -7.2208  -7.2204  -7.2197  -7.2195  -7.2189  -7.2187  -7.2186  -7.2178
    -7.2175  -7.2171  -7.2166  -7.2164  -7.2159  -7.2155  -7.2150  -7.2143
    -7.2138  -7.2133  -7.2132  -7.2127  -7.2126  -7.2122  -7.2118  -7.2109
    -7.2103  -7.2095  -7.2087  -7.2083  -7.2078  -7.2076  -7.2071  -7.2070
    -7.2063  -7.2058  -7.2052  -7.2051  -7.2044  -7.2041  -7.2035  -7.2032
    -7.2030  -7.2025  -7.2020  -7.2017  -7.2014  -7.2009  -7.2006  -7.1998
    -7.1990  -7.1987  -7.1984  -7.1980  -7.1971  -7.1966  -7.1963  -7.1962
    -7.1954  -7.1952  -7.1949  -7.1947  -7.1945  -7.1942  -7.1936  -7.1934
    -7.1933  -7.1925  -7.1923  -7.1919  -7.1913  -7.1908  -7.1906  -7.1898
    -7.1893  -7.1891  -7.1888  -7.1885  -7.1881  -7.1878  -7.1873  -7.1868
    -7.1865  -7.1854  -7.1851  -7.1850  -7.1848  -7.1844  -7.1838  -7.1828
    -7.1826  -7.1824  -7.1819  -7.1814  -7.1812  -7.1808  -7.1803  -7.1801
    -7.1797  -7.1796  -7.1792  -7.1790  -7.1784  -7.1780  -7.1777  -7.1775
    -7.1769  -7.1761  -7.1760  -7.1759  -7.1758  -7.1756  -7.1750  -7.1746
    -7.1744  -7.1740  -7.1735  -7.1733  -7.1729  -7.1729  -7.1725  -7.1722
    -7.1721  -7.1716  -7.1712  -7.1707  -7.1703  -7.1701  -7.1700  -7.1693
    -7.1691  -7.1689  -7.1682  -7.1680  -7.1677  -7.1674  -7.1669  -7.1669
    -7.1663  -7.1660  -7.1656  -7.1652  -7.1650  -7.1648  -7.1645  -7.1640
    -7.1635  -7.1633  -7.1621  -7.1619  -7.1615  -7.1608  -7.1601  -7.1594
    -7.1590  -7.1587  -7.1583  -7.1582  -7.1573  -7.1572  -7.1567  -7.1564
    -7.1560  -7.1555  -7.1548  -7.1542  -7.1539  -7.1537  -7.1530  -7.1527
    -7.1524  -7.1520  -7.1518  -7.1516  -7.1512  -7.1509  -7.1503  -7.1501
    -7.1499  -7.1496  -7.1494  -7.1491  -7.1487  -7.1484  -7.1480  -7.1478
    -7.1477  -7.1472  -7.1465  -7.1461  -7.1457  -7.1453  -7.1451  -7.1450
    -7.1445  -7.1442  -7.1438  -7.1436  -7.1431  -7.1428  -7.1426  -7.1421
    -7.1417  -7.1412  -7.1411  -7.1410  -7.1407  -7.1405  -7.1402  -7.1397
    -7.1389  -7.1387  -7.1386  -7.1381  -7.1378  -7.1371  -7.1368  -7.1363
    -7.1358  -7.1355  -7.1353  -7.1350  -7.1344  -7.1343  -7.1335  -7.1334
    -7.1331  -7.1329  -7.1321  -7.1320  -7.1312  -7.1301  -7.1299  -7.1296
    -7.1294  -7.1292  -7.1288  -7.1284  -7.1282  -7.1278  -7.1272  -7.1269
    -7.1265  -7.1264  -7.1257  -7.1255  -7.1245  -7.1241  -7.1238  -7.1233
    -7.1230  -7.1226  -7.1223  -7.1218  -7.1216  -7.1213  -7.1204  -7.1201
    -7.1196  -7.1190  -7.1187  -7.1178  -7.1174  -7.1169  -7.1166  -7.1166
    -7.1160  -7.1156  -7.1153  -7.1150  -7.1145  -7.1141  -7.1138  -7.1134
    -7.1129  -7.1125  -7.1125  -7.1121  -7.1113  -7.1108  -7.1101  -7.1097
    -7.1090  -7.1086  -7.1085  -7.1076  -7.1072  -7.1067  -7.1064  -7.1060
    -7.1052  -7.1047  -7.1044  -7.1030  -7.1026  -7.1017  -7.1012  -7.1009
    -7.1006  -7.1003  -7.0998  -7.0994  -7.0983  -7.0976  -7.0973  -7.0971
    -7.0966  -7.0949  -7.0945  -7.0943  -7.0938  -7.0924  -7.0921  -7.0920
    -7.0909  -7.0907  -7.0902  -7.0889  -7.0886  -7.0883  -7.0875  -7.0869
    -7.0862  -7.0857  -7.0849  -7.0844  -7.0839  -7.0819  -7.0814  -7.0808
    -7.0803  -7.0796  -7.0796  -7.0785  -7.0778  -7.0770  -7.0769  -7.0757
    -7.0755  -7.0755  -7.0751  -7.0748  -7.0743  -7.0733  -7.0727  -7.0724
    -7.0722  -7.0720  -7.0714  -7.0705  -7.0701  -7.0700  -7.0693  -7.0690
    -7.0689  -7.0686  -7.0684  -7.0673  -7.0669  -7.0639  -7.0632  -7.0624
    -7.0622  -7.0615  -7.0611  -7.0605  -7.0591  -7.0572  -7.0568  -7.0560
    -7.0551  -7.0537  -7.0533  -7.0514  -7.0513  -7.0496  -7.0486  -7.0481
    -7.0465  -7.0443  -7.0440  -7.0430  -7.0397  -7.0395  -7.0386  -7.0368
    -7.0365  -7.0350  -7.0346  -7.0340  -7.0327  -7.0322  -7.0313  -7.0309
    -7.0306  -7.0303  -7.0295  -7.0292  -7.0278  -7.0277  -7.0271  -7.0260
    -7.0255  -7.0254  -7.0237  -7.0185  -7.0156  -7.0033  -7.0018  -7.0003
    -6.9984  -6.9980  -6.9971  -6.9910  -6.9876  -6.9857  -6.9572  -6.9530
    -3.5697  -3.5235  -3.4369  -3.4026  -3.3617  -3.2894  -3.2689  -3.2495
    -3.2324  -3.1580  -3.1185  -3.0986  -3.0781  -3.0458  -2.9900  -2.9664
    -2.9348  -2.8998  -2.8687  -2.8566  -2.8107  -2.8016  -2.7731  -2.7312
    -2.7165  -2.6935  -2.6844  -2.6753  -2.5846  -2.5702  -2.5504  -2.5185
    -2.5094  -2.4879  -2.4413  -2.4264  -2.4210  -2.3923  -2.3814  -2.3384
    -2.3090  -2.2814  -2.2761  -2.2628  -2.2404  -2.2260  -2.1758  -2.1592
    -2.1224  -2.1037  -2.0585  -2.0314  -2.0197  -1.9906  -1.9684  -1.9509
    -1.9185  -1.8897  -1.8856  -1.8360  -1.8236  -1.7802  -1.7491  -1.7347
    -1.7118  -1.6881  -1.6602  -1.6409  -1.5995  -1.5960  -1.5597  -1.5405
    -1.5157  -1.5120  -1.4959  -1.4693  -1.4449  -1.4271  -1.4175  -1.3954
    -1.3818  -1.3727  -1.3338  -1.3134  -1.2854  -1.2491  -1.2370  -1.2093
    -1.1856  -1.1605  -1.1579  -1.1244  -1.1044  -1.0694  -1.0615  -1.0324
    -1.0095  -0.9479  -0.9277  -0.9149  -0.8984  -0.8843  -0.8243  -0.8049
    -0.7836  -0.7536  -0.7281  -0.6396  -0.3946  -0.3298  -0.2507  -0.1542
     0.0491   0.0730   0.0748   0.1141   0.1296   0.1453   0.1586   0.1669
     0.1865   0.2107   0.2225   0.2318   0.2404   0.2458   0.2689   0.2930
     0.2958   0.2996   0.3153   0.3536   0.3637   0.3841   0.3948   0.4109
     0.4292   0.4557   0.4742   0.4903   0.5167   0.5204   0.5535   0.5616
     0.5820   0.6168   0.6464   0.6701   0.6840   0.7018   0.7255   0.7571
     0.7726   0.7937   0.8039   0.8554   0.8794   0.9017   0.9170   0.9276
     0.9410   0.9534   0.9623   0.9712   0.9958   1.0381   1.0555   1.0907
     1.3427   1.4457   1.5076   1.5359   1.5802   1.5934   1.6263   1.6484
     1.6708   1.7056   1.7259   1.7363   1.7611   1.8015   1.8380   1.8662
     1.8864   1.9187   1.9358   1.9521   1.9855   2.0155   2.0359   2.0422
     2.0597   2.0950   2.1167   2.1529   2.8544   2.9119   2.9318   2.9491
     2.9671   2.9778   3.0034   3.0313   3.0636   3.0781   3.0874   3.1031
     3.1266   3.1607   3.1755   3.2049   3.3146   3.3223   3.3433   3.3628
     3.3710   3.3895   3.4137   3.4212   3.4308   3.4445   3.4756   3.4832
     3.4862   3.5105   3.5277   3.5459   3.5576   3.5675   3.5924   3.6080
     3.6181   3.6367   3.6507   3.6813   3.6997   3.7006   3.7166   3.7251
     3.7498   3.7596   3.7762   3.7854   3.8132   3.8271   3.8376   3.8498
     3.8559   3.8730   3.8755   3.8812   3.9041   3.9155   3.9241   3.9568
     3.9668   3.9909   4.0348   4.0612   4.1694   4.1850   4.2390   4.3102
     4.3221   4.3333   4.3741   4.3757   4.3904   4.3977   4.4178   4.4506
     4.4744   4.4810   4.4924   4.5201   4.5319   4.5360   4.5608   4.5705
     4.5990   4.6001   4.6090   4.6340   4.6368   4.6602   4.6678   4.6827
     4.7030   4.7182   4.7459   4.7521   4.7562   4.7833   4.7951   4.8065
     4.8106   4.8484   4.8556   4.8590   4.8777   4.8880   4.8962   4.9207
     4.9327   4.9585   4.9877   4.9919   5.0090   5.0305   5.0337   5.0450
     5.0637   5.0769   5.0889   5.1051   5.1213   5.1362   5.1450   5.1654
     5.1796   5.1885   5.1975   5.2232   5.2423   5.2469   5.2512   5.2631
     5.2856   5.3020   5.3082   5.3179   5.3360   5.3388   5.3522   5.3603
     5.3729   5.3837   5.4148   5.4289   5.4373   5.4421   5.4606   5.4839
     5.5044   5.5281   5.5316   5.5436   5.5884   5.5909   5.6027   5.6163
     5.6431   5.6613   5.6709   5.6779   5.6881   5.7064   5.7297   5.7393
     5.7673   5.7877   5.7979   5.8314   5.8434   5.8580   5.8786   5.8801
     5.9071   5.9188   5.9349   5.9549   5.9642   5.9858   6.0069   6.0367
     6.0688   6.0710   6.0886   6.1255   6.1397   6.1630   6.1799   6.1952
     6.2216   6.2338   6.2528   6.2678   6.2950   6.3063   6.3349   6.3530
     6.3650   6.3796   6.3939   6.4178   6.4292   6.4540   6.4586   6.4796
     6.4936   6.5049   6.5157   6.5275   6.5477   6.5577   6.5702   6.5838
     6.6235   6.6340   6.6428   6.6626   6.6996   6.7081   6.7261   6.7723
     6.7878   6.8126   6.8292   6.8699   6.9084   6.9199   6.9430   6.9538
     6.9802   7.0314   7.0514   7.1403   7.4167   7.4523   7.5954   7.6475
     9.3894   9.4248   9.4496   9.4539   9.4720   9.4958   9.5216   9.5861
     9.6136   9.6591   9.6845   9.6944   9.7125   9.7231   9.7346   9.7442
     9.7646   9.7744   9.7921   9.7974   9.8177   9.8342   9.8587   9.8761
     9.8843   9.8930   9.9123   9.9345   9.9421   9.9725   9.9841  10.0180
    10.0243  10.0382  10.0630  10.0683  10.0841  10.0872  10.1233  10.1381
    10.1532  10.1611  10.1798  10.1892  10.1967  10.2030  10.2111  10.2274
    10.2387  10.2472  10.2638  10.2672  10.2830  10.2868  10.3116  10.3390
    10.3436  10.3511  10.3741  10.3780  10.3856  10.4034  10.4105  10.4314
    10.4454  10.4593  10.4739  10.4838  10.4998  10.5057  10.5176  10.5214
    10.5377  10.5489  10.5546  10.5674  10.5813  10.5936  10.6010  10.6120
    10.6202  10.6455  10.6461  10.6582  10.6702  10.6873  10.6927  10.7160
    10.7204  10.7372  10.7512  10.7716  10.7766  10.7863  10.7962  10.8106
    10.8382  10.8429  10.8520  10.8606  10.8665  10.8859  10.8936  10.9260
    10.9315  10.9547  10.9955  11.0175  11.2736  11.2897  11.3660  11.3817
    11.4957  11.5034  11.5350  11.5599  11.5823  11.5898  11.6009  11.6079
    11.6152  11.6260  11.6333  11.6595  11.6740  11.6804  11.7044  11.7261
    11.7287  11.7538  11.7663  11.7818  11.7864  11.8059  11.8202  11.8362
    11.8450  11.8526  11.8646  11.8900  11.8928  11.9001  11.9082  11.9191
    11.9237  11.9545  11.9618  11.9682  11.9806  11.9917  12.0019  12.0386
    12.1518  12.1749  12.1870  12.2035  12.2053  12.2184  12.2223  12.2355
    12.2544  12.2617  12.2717  12.2945  12.3209  12.3301  12.3415  12.3662
    12.3913  12.4018  12.4154  12.4382  12.4439  12.4501  12.4669  12.4841
    12.4888  12.4932  12.5001  12.5074  12.5286  12.5343  12.5408  12.5471
    12.5541  12.5609  12.5798  12.5841  12.5974  12.6003  12.6044  12.6194
    12.6256  12.6333  12.6407  12.6550  12.6591  12.6722  12.6813  12.6864
    12.6998  12.7052  12.7190  12.7425  12.7494  12.7563  12.7612  12.7731
    12.7772  12.7917  12.7963  12.8163  12.8248  12.8327  12.8378  12.8503
    12.8536  12.8705  12.8862  12.8888  12.9175  12.9270  12.9518  12.9734
    12.9861  13.0189  13.0654  13.0742  13.1307  13.1415  13.1543  13.1611
    13.2020  13.2065  13.2242  13.2318  13.2371  13.2501  13.2549  13.2742
    13.2921  13.3129  13.3233  13.3314  13.3362  13.3433  13.3614  13.3722
    13.3841  13.3885  13.3985  13.4069  13.4126  13.4263  13.4288  13.4405
    13.4516  13.4651  13.4910  13.4944  13.5015  13.5125  13.5181  13.5290
    13.5363  13.5496  13.5603  13.5661  13.5783  13.5860  13.5940  13.6263
    13.6323  13.6453  13.6607  13.6883  13.6956  13.7057  13.7202  13.7358
    13.7504  13.7719  13.7791  13.8173  13.8667  13.8829  13.8939  13.9240
    13.9331  13.9421  13.9515  13.9651  13.9719  13.9820  13.9863  13.9926
    14.0002  14.0137  14.0166  14.0184  14.0367  14.0540  14.0616  14.0650
    14.0700  14.0816  14.0923  14.0995  14.1033  14.1096  14.1213  14.1232
    14.1349  14.1507  14.1572  14.1713  14.1799  14.1934  14.2084  14.2147
    14.2202  14.2298  14.2374  14.2476  14.2572  14.2645  14.2683  14.2768
    14.2950  14.3050  14.3099  14.3246  14.3384  14.3488  14.3522  14.3624
    14.3743  14.3778  14.4000  14.4098  14.4164  14.4219  14.4374  14.4420
    14.4489  14.4693  14.4846  14.5026  14.5075  14.5162  14.5376  14.5829
    14.7015  14.7154  14.7241  14.7446  14.7583  14.7893  14.8140  14.8197
    14.8727  14.9087  14.9772  14.9991  15.0185  15.0267  15.1029  15.1288
    15.1872  15.1983  15.2116  15.2492  15.2558  15.2643  15.2898  15.2954
    15.3056  15.3154  15.3305  15.3501  15.3593  15.3738  15.3882  15.3922
    15.5607  15.5979  15.6016  15.6224  15.6323  15.6454  15.6512  15.6625
    15.6710  15.6911  15.7017  15.7073  15.7208  15.7292  15.7321  15.7391
    15.7504  15.7662  15.7874  15.7889  15.7991  15.8112  15.8298  15.8388
    15.8434  15.8708  15.8776  15.8881  15.9043  15.9253  15.9449  15.9553
    15.9766  15.9818  15.9997  16.0043  16.0216  16.0311  16.0405  16.0610
    16.0993  16.1032  16.1236  16.1446  16.1608  16.1824  16.1948  16.2086
    16.2273  16.2476  16.2481  16.2702  16.2847  16.3080  16.3630  16.3823
    16.3912  16.4222  16.4369  16.4505  16.4697  16.5091  16.5158  16.5318
    16.5350  16.5440  16.5609  16.5769  16.5884  16.5915  16.6030  16.6190
    16.6272  16.6310  16.6450  16.6524  16.6630  16.6665  16.6807  16.6875
    16.6985  16.7385  16.7597  16.7653  16.7892  16.8113  16.8227  16.8284
    16.8480  16.8586  16.8635  16.8754  16.8892  16.8957  16.9054  16.9223
    16.9277  16.9309  16.9514  16.9562  16.9775  16.9856  16.9977  17.0076
    17.0233  17.0472  17.0562  17.0687  17.0755  17.0810  17.0940  17.1041
    17.1169  17.1240  17.1295  17.1482  17.1577  17.1684  17.1791  17.1852
    17.1998  17.2057  17.2156  17.2222  17.2326  17.2380  17.2542  17.2578
    17.2665  17.2720  17.3032  17.3100  17.3196  17.3379  17.3531  17.3597
    17.3844  17.3930  17.4045  17.4221  17.4248  17.4300  17.4456  17.4538
    17.4643  17.4702  17.4786  17.4844  17.4974  17.5103  17.5160  17.5195
    17.5319  17.5436  17.5484  17.5533  17.5639  17.5771  17.5787  17.5853
    17.5996  17.6061  17.6119  17.6175  17.6352  17.6380  17.6412  17.6557
    17.6663  17.6878  17.7010  17.7029  17.7174  17.7307  17.7394  17.7470
    17.7695  17.7934  17.8175  17.8354  17.9213  17.9242  17.9524  17.9696
    17.9922  18.0136  18.0428  18.0436  18.0700  18.0757  18.0823  18.0972
    18.1099  18.1185  18.1282  18.1320  18.1368  18.1534  18.1606  18.1758
    18.1819  18.1912  18.1990  18.2098  18.2142  18.2221  18.2400  18.2519
    18.2629  18.2784  18.2934  18.2979  18.3307  18.3481  18.3650  18.3808
    18.4634  18.4776  18.4878  18.4984  18.5047  18.5082  18.5171  18.5196
    18.5445  18.5527  18.5620  18.5739  18.5915  18.5992  18.6283  18.6421
    18.6607  18.6809  18.7007  18.7123  18.7324  18.7486  18.7600  18.7739
    18.8130  18.8235  18.8358  18.8622  18.8824  18.8886  18.9059  18.9307
    18.9411  18.9512  18.9563  18.9844  18.9921  19.0125  19.0160  19.0183
    19.0285  19.0501  19.0568  19.0609  19.0725  19.0854  19.0923  19.1121

     highest occupied, lowest unoccupied level (ev):     7.6739    8.5292

!    total energy              =  -37799.96075482 Ry
     estimated scf accuracy    <       0.00000456 Ry

     The total energy is the sum of the following terms:
     one-electron contribution =  -19624.86993724 Ry
     hartree contribution      =   11811.55589998 Ry
     xc contribution           =   -9549.40245847 Ry
     ewald contribution        =  -20435.49737192 Ry
     Hubbard energy            =      -1.74688716 Ry

     convergence has been achieved in  12 iterations

     Writing all to output data dir ./tmp_In0.0Ga1.0As0.5Sb0.5_cube_3x3x3.6/In0.0Ga1.0As0.5Sb0.5_cube_3x3x3.6.save/ :
     XML data file, charge density, pseudopotentials, collected wavefunctions

     init_run     :    229.20s CPU    231.81s WALL (       1 calls)
     electrons    :   8564.46s CPU   8585.24s WALL (       1 calls)

     Called by init_run:
     wfcinit      :    219.24s CPU    221.40s WALL (       1 calls)
     potinit      :      2.04s CPU      2.10s WALL (       1 calls)
     hinit0       :      1.73s CPU      1.76s WALL (       1 calls)

     Called by electrons:
     c_bands      :   8301.63s CPU   8321.25s WALL (      13 calls)
     sum_band     :    257.80s CPU    258.29s WALL (      13 calls)
     v_of_rho     :      3.36s CPU      3.50s WALL (      13 calls)
     mix_rho      :      0.75s CPU      0.77s WALL (      13 calls)

     Called by c_bands:
     init_us_2    :     31.22s CPU     31.72s WALL (      28 calls)
     cegterg      :   7977.47s CPU   7995.75s WALL (      13 calls)

     Called by *egterg:
     cdiaghg      :    720.86s CPU    721.65s WALL (     101 calls)
     h_psi        :   4746.77s CPU   4756.80s WALL (     103 calls)
     g_psi        :      4.13s CPU      4.13s WALL (      89 calls)

     Called by h_psi:
     h_psi:calbec :    840.74s CPU    840.80s WALL (     103 calls)
     vloc_psi     :    645.12s CPU    646.81s WALL (     103 calls)
     add_vuspsi   :    820.69s CPU    823.44s WALL (     103 calls)
     vhpsi        :   2432.05s CPU   2432.25s WALL (     103 calls)

     General routines
     calbec       :   1070.61s CPU   1070.69s WALL (     220 calls)
     fft          :      3.06s CPU      3.21s WALL (     131 calls)
     ffts         :      0.19s CPU      0.20s WALL (      13 calls)
     fftw         :    639.97s CPU    641.70s WALL (  161488 calls)

     Parallel routines

     Hubbard U routines
     new_ns       :     59.23s CPU     59.24s WALL (      13 calls)
     vhpsi        :   2432.05s CPU   2432.25s WALL (     103 calls)

     PWSCF        :      2h27m CPU      2h28m WALL


   This run was terminated on:  14:31: 4  16Jun2025            

=------------------------------------------------------------------------------=
   JOB DONE.
=------------------------------------------------------------------------------=
