
     Program PWSCF v.7.3.1 starts on 28Jan2026 at  5:50:30 

     This program is part of the open-source Quantum ESPRESSO suite
     for quantum simulation of materials; please cite
         "P. Giannozzi et al., J. Phys.:Condens. Matter 21 395502 (2009);
         "P. Giannozzi et al., J. Phys.:Condens. Matter 29 465901 (2017);
         "P. Giannozzi et al., J. Chem. Phys. 152 154105 (2020);
          URL http://www.quantum-espresso.org", 
     in publications or presentations arising from this work. More details at
     http://www.quantum-espresso.org/quote

     Parallel version (MPI), running on   640 processors

     MPI processes distributed on     5 nodes
     481266 MiB available memory on the printing compute node when the environment starts

     Reading input from In1.0Ga0.0As0.75Sb0.25_cube_3x3x3.2.scf.in
Warning: card &CELL ignored
Warning: card   CELL_DOFREE = 'ALL', ignored
Warning: card / ignored

     Current dimensions of program PWSCF are:
     Max number of different atomic species (ntypx) = 10
     Max number of k-points (npk) =  40000
     Max angular momentum in pseudopotentials (lmaxx) =  4

     K-points division:     npool     =       8
     R & G space division:  proc/nbgrp/npool/nimage =      80
     Subspace diagonalization in iterative solution of the eigenvalue problem:
     one sub-group per band group will be used
     custom distributed-memory algorithm (size of sub-group:  8*  8 procs)


     Parallelization info
     --------------------
     sticks:   dense  smooth     PW     G-vecs:    dense   smooth      PW
     Min         589     589    151                96157    96157   12529
     Max         590     590    152                96161    96161   12534
     Sum       47129   47129  12101              7692717  7692717 1002473

     Using Slab Decomposition



     bravais-lattice index     =            1
     lattice parameter (alat)  =      35.1190  a.u.
     unit-cell volume          =   43313.9381 (a.u.)^3
     number of atoms/cell      =          216
     number of atomic types    =            4
     number of electrons       =      3024.00
     number of Kohn-Sham states=         2160
     kinetic-energy cutoff     =     120.0000  Ry
     charge density cutoff     =     480.0000  Ry
     scf convergence threshold =      1.0E-05
     mixing beta               =       0.6500
     number of iterations used =            8  plain     mixing
     Exchange-correlation= PBE
                           (   1   4   3   4   0   0   0)
     Hubbard projectors: atomic
     Hubbard parameters of DFT+U (Dudarev formulation) in eV:
     U(As-4p) =  3.2600
     U(Ga-4p) = -3.2650
     U(In-5p) = -0.9725
     U(Sb-5p) =  3.1600

     Internal variables: lda_plus_u =T, lda_plus_u_kind = 0

     celldm(1)=  35.119034  celldm(2)=   0.000000  celldm(3)=   0.000000
     celldm(4)=   0.000000  celldm(5)=   0.000000  celldm(6)=   0.000000

     crystal axes: (cart. coord. in units of alat)
               a(1) = (   1.000000   0.000000   0.000000 )  
               a(2) = (   0.000000   1.000000   0.000000 )  
               a(3) = (   0.000000   0.000000   1.000000 )  

     reciprocal axes: (cart. coord. in units 2 pi/alat)
               b(1) = (  1.000000  0.000000  0.000000 )  
               b(2) = (  0.000000  1.000000  0.000000 )  
               b(3) = (  0.000000  0.000000  1.000000 )  


     PseudoPot. # 1 for As read from file:
     /work/i254/i254/gentles/data/pseudos/As.pbe.NC-SR.standard.v0.5.UPF
     MD5 check sum: bfe1a874457ce592347346129958e7cf
     Pseudo is Norm-conserving + core correction, Zval = 15.0
     Generated using ONCVPSP code by D. R. Hamann
     Using radial grid of 1358 points,  6 beta functions with: 
                l(1) =   0
                l(2) =   0
                l(3) =   1
                l(4) =   1
                l(5) =   2
                l(6) =   2

     PseudoPot. # 2 for Ga read from file:
     /work/i254/i254/gentles/data/pseudos/Ga.pbe.NC-SR.standard.v0.5.UPF
     MD5 check sum: 2bb81bf6f0a8d9832cf3329850435ecf
     Pseudo is Norm-conserving + core correction, Zval = 13.0
     Generated using ONCVPSP code by D. R. Hamann
     Using radial grid of 1902 points,  6 beta functions with: 
                l(1) =   0
                l(2) =   0
                l(3) =   1
                l(4) =   1
                l(5) =   2
                l(6) =   2

     PseudoPot. # 3 for In read from file:
     /work/i254/i254/gentles/data/pseudos/In.pbe.NC-SR.standard.v0.5.UPF
     MD5 check sum: 835f4bf908c982ff75c88e16816a8d7f
     Pseudo is Norm-conserving + core correction, Zval = 13.0
     Generated using ONCVPSP code by D. R. Hamann
     Using radial grid of 1964 points,  6 beta functions with: 
                l(1) =   0
                l(2) =   0
                l(3) =   1
                l(4) =   1
                l(5) =   2
                l(6) =   2

     PseudoPot. # 4 for Sb read from file:
     /work/i254/i254/gentles/data/pseudos/Sb.pbe.NC-SR.standard.v0.5.UPF
     MD5 check sum: 127f69b6101c45666faeae1b5d611565
     Pseudo is Norm-conserving + core correction, Zval = 15.0
     Generated using ONCVPSP code by D. R. Hamann
     Using radial grid of 1434 points,  6 beta functions with: 
                l(1) =   0
                l(2) =   0
                l(3) =   1
                l(4) =   1
                l(5) =   2
                l(6) =   2

     atomic species   valence    mass     pseudopotential
     As               15.00    74.92160     As( 1.00)
     Ga               13.00    69.72300     Ga( 1.00)
     In               13.00   114.81800     In( 1.00)
     Sb               15.00   121.76000     Sb( 1.00)

     No symmetry found



   Cartesian axes

     site n.     atom                  positions (alat units)
         1        In     tau(   1) = (   0.0072750   0.0012680   0.0009130  )
         2        In     tau(   2) = (  -0.0004090   0.1670530   0.1581520  )
         3        In     tau(   3) = (   0.1674200   0.0017080   0.1700380  )
         4        In     tau(   4) = (   0.1722380   0.1657560   0.0038640  )
         5        As     tau(   5) = (   0.0882020   0.0833940   0.0839610  )
         6        Sb     tau(   6) = (   0.0842510   0.2489520   0.2516730  )
         7        As     tau(   7) = (   0.2523820   0.0832770   0.2511170  )
         8        As     tau(   8) = (   0.2546130   0.2480710   0.0866560  )
         9        In     tau(   9) = (   0.0044780  -0.0014390   0.3375630  )
        10        In     tau(  10) = (  -0.0001150   0.1684710   0.4983290  )
        11        In     tau(  11) = (   0.1661250   0.0041130   0.5041880  )
        12        In     tau(  12) = (   0.1714920   0.1620340   0.3384190  )
        13        As     tau(  13) = (   0.0842680   0.0838780   0.4198750  )
        14        As     tau(  14) = (   0.0826080   0.2491970   0.5827690  )
        15        As     tau(  15) = (   0.2520430   0.0864310   0.5820220  )
        16        As     tau(  16) = (   0.2522300   0.2495130   0.4172250  )
        17        In     tau(  17) = (   0.0035340   0.0062000   0.6629690  )
        18        In     tau(  18) = (  -0.0020460   0.1665150   0.8226320  )
        19        In     tau(  19) = (   0.1632660   0.0051670   0.8354050  )
        20        In     tau(  20) = (   0.1682860   0.1681740   0.6640080  )
        21        As     tau(  21) = (   0.0857510   0.0861700   0.7461860  )
        22        Sb     tau(  22) = (   0.0826390   0.2478270   0.9153640  )
        23        As     tau(  23) = (   0.2499400   0.0839160   0.9175440  )
        24        As     tau(  24) = (   0.2503410   0.2495240   0.7461130  )
        25        In     tau(  25) = (  -0.0089470   0.3326650  -0.0016760  )
        26        In     tau(  26) = (  -0.0050210   0.4945740   0.1724030  )
        27        In     tau(  27) = (   0.1759010   0.3331690   0.1683690  )
        28        In     tau(  28) = (   0.1657620   0.5094970  -0.0004630  )
        29        Sb     tau(  29) = (   0.0836730   0.4154470   0.0828260  )
        30        Sb     tau(  30) = (   0.0858510   0.5829220   0.2513320  )
        31        As     tau(  31) = (   0.2545490   0.4163800   0.2524210  )
        32        As     tau(  32) = (   0.2558570   0.5810420   0.0846570  )
        33        In     tau(  33) = (  -0.0045020   0.3348880   0.3377590  )
        34        In     tau(  34) = (   0.0004860   0.4921010   0.5009840  )
        35        In     tau(  35) = (   0.1669800   0.3293220   0.5005790  )
        36        In     tau(  36) = (   0.1699250   0.4949400   0.3382020  )
        37        As     tau(  37) = (   0.0847030   0.4123570   0.4185660  )
        38        Sb     tau(  38) = (   0.0860340   0.5817030   0.5856920  )
        39        As     tau(  39) = (   0.2507390   0.4116290   0.5826590  )
        40        As     tau(  40) = (   0.2537900   0.5810120   0.4148040  )
        41        In     tau(  41) = (   0.0005030   0.3338710   0.6648570  )
        42        In     tau(  42) = (   0.0002690   0.4953460   0.8328410  )
        43        In     tau(  43) = (   0.1674520   0.3327440   0.8262530  )
        44        In     tau(  44) = (   0.1728430   0.4937180   0.6695440  )
        45        As     tau(  45) = (   0.0833360   0.4151750   0.7479200  )
        46        As     tau(  46) = (   0.0806100   0.5829600   0.9125450  )
        47        Sb     tau(  47) = (   0.2511040   0.4192180   0.9160130  )
        48        As     tau(  48) = (   0.2515970   0.5811950   0.7503970  )
        49        In     tau(  49) = (  -0.0002510   0.6666690  -0.0059220  )
        50        In     tau(  50) = (  -0.0018870   0.8340780   0.1754480  )
        51        In     tau(  51) = (   0.1778650   0.6660340   0.1658500  )
        52        In     tau(  52) = (   0.1703450   0.8433640   0.0010000  )
        53        Sb     tau(  53) = (   0.0853890   0.7518020   0.0843010  )
        54        As     tau(  54) = (   0.0843950   0.9186370   0.2508130  )
        55        As     tau(  55) = (   0.2564350   0.7505110   0.2483240  )
        56        As     tau(  56) = (   0.2518350   0.9206730   0.0880060  )
        57        In     tau(  57) = (  -0.0054870   0.6703420   0.3315200  )
        58        In     tau(  58) = (  -0.0003970   0.8427240   0.4993080  )
        59        In     tau(  59) = (   0.1757300   0.6652310   0.4986960  )
        60        In     tau(  60) = (   0.1707020   0.8341610   0.3240490  )
        61        Sb     tau(  61) = (   0.0858080   0.7530410   0.4157060  )
        62        As     tau(  62) = (   0.0829590   0.9202970   0.5830690  )
        63        As     tau(  63) = (   0.2511120   0.7510060   0.5836070  )
        64        Sb     tau(  64) = (   0.2530790   0.9187270   0.4160600  )
        65        In     tau(  65) = (  -0.0023480   0.6654400   0.6746290  )
        66        In     tau(  66) = (   0.0040890   0.8299220   0.8367130  )
        67        In     tau(  67) = (   0.1644690   0.6616200   0.8293240  )
        68        In     tau(  68) = (   0.1613330   0.8306100   0.6613530  )
        69        As     tau(  69) = (   0.0838760   0.7486340   0.7505680  )
        70        As     tau(  70) = (   0.0849080   0.9184180   0.9161790  )
        71        Sb     tau(  71) = (   0.2515650   0.7473820   0.9176930  )
        72        Sb     tau(  72) = (   0.2489680   0.9188880   0.7463200  )
        73        In     tau(  73) = (   0.3311800   0.0047510   0.0051210  )
        74        In     tau(  74) = (   0.3353870   0.1657160   0.1694940  )
        75        In     tau(  75) = (   0.5012000  -0.0003360   0.1676000  )
        76        In     tau(  76) = (   0.5037180   0.1619730   0.0056750  )
        77        As     tau(  77) = (   0.4177420   0.0830610   0.0873660  )
        78        As     tau(  78) = (   0.4174890   0.2480510   0.2509620  )
        79        As     tau(  79) = (   0.5827660   0.0829440   0.2504780  )
        80        As     tau(  80) = (   0.5834080   0.2486830   0.0852050  )
        81        In     tau(  81) = (   0.3403330   0.0041020   0.3297090  )
        82        In     tau(  82) = (   0.3345550   0.1668920   0.4986650  )
        83        In     tau(  83) = (   0.4996340   0.0007020   0.4972210  )
        84        In     tau(  84) = (   0.5015230   0.1659940   0.3326430  )
        85        As     tau(  85) = (   0.4186760   0.0855410   0.4157540  )
        86        As     tau(  86) = (   0.4170030   0.2485580   0.5818540  )
        87        As     tau(  87) = (   0.5798620   0.0853800   0.5802270  )
        88        As     tau(  88) = (   0.5829710   0.2469380   0.4158920  )
        89        In     tau(  89) = (   0.3382880   0.0039540   0.6604960  )
        90        In     tau(  90) = (   0.3289200   0.1643850   0.8291790  )
        91        In     tau(  91) = (   0.4995690   0.0105670   0.8327160  )
        92        In     tau(  92) = (   0.5007810   0.1690830   0.6657650  )
        93        As     tau(  93) = (   0.4162280   0.0873260   0.7466420  )
        94        Sb     tau(  94) = (   0.4185880   0.2481340   0.9167000  )
        95        As     tau(  95) = (   0.5850210   0.0843900   0.9192380  )
        96        As     tau(  96) = (   0.5835580   0.2510440   0.7499100  )
        97        In     tau(  97) = (   0.3345530   0.3337520   0.0068000  )
        98        In     tau(  98) = (   0.3364970   0.4987960   0.1693670  )
        99        In     tau(  99) = (   0.4969780   0.3293030   0.1645690  )
       100        In     tau( 100) = (   0.5014760   0.4986780   0.0001630  )
       101        As     tau( 101) = (   0.4183390   0.4173400   0.0850380  )
       102        As     tau( 102) = (   0.4171910   0.5844070   0.2510590  )
       103        Sb     tau( 103) = (   0.5832010   0.4170560   0.2504160  )
       104        As     tau( 104) = (   0.5819050   0.5834210   0.0827730  )
       105        In     tau( 105) = (   0.3350460   0.3310470   0.3327100  )
       106        In     tau( 106) = (   0.3304120   0.4937410   0.4969510  )
       107        In     tau( 107) = (   0.4968180   0.3281260   0.4948100  )
       108        In     tau( 108) = (   0.4962250   0.5029570   0.3373080  )
       109        As     tau( 109) = (   0.4155580   0.4141680   0.4154150  )
       110        Sb     tau( 110) = (   0.4149680   0.5846830   0.5806010  )
       111        Sb     tau( 111) = (   0.5848800   0.4127740   0.5812140  )
       112        As     tau( 112) = (   0.5846450   0.5845430   0.4144740  )
       113        In     tau( 113) = (   0.3349320   0.3307850   0.6648740  )
       114        In     tau( 114) = (   0.3399680   0.5043790   0.8315000  )
       115        In     tau( 115) = (   0.5035360   0.3372810   0.8301640  )
       116        In     tau( 116) = (   0.4955730   0.4947910   0.6683760  )
       117        As     tau( 117) = (   0.4147040   0.4142380   0.7498990  )
       118        As     tau( 118) = (   0.4203850   0.5834500   0.9187240  )
       119        As     tau( 119) = (   0.5845550   0.4162380   0.9178880  )
       120        Sb     tau( 120) = (   0.5825560   0.5821440   0.7521910  )
       121        In     tau( 121) = (   0.3399900   0.6628660   0.0051780  )
       122        In     tau( 122) = (   0.3367840   0.8347170   0.1663700  )
       123        In     tau( 123) = (   0.5012330   0.6658870   0.1687830  )
       124        In     tau( 124) = (   0.5043670   0.8309250   0.0076880  )
       125        As     tau( 125) = (   0.4193550   0.7490090   0.0870220  )
       126        As     tau( 126) = (   0.4193250   0.9172140   0.2488880  )
       127        As     tau( 127) = (   0.5824410   0.7505920   0.2498480  )
       128        As     tau( 128) = (   0.5846680   0.9177180   0.0864950  )
       129        In     tau( 129) = (   0.3355570   0.6671130   0.3334020  )
       130        In     tau( 130) = (   0.3380130   0.8306120   0.5024170  )
       131        In     tau( 131) = (   0.5045310   0.6700090   0.4942140  )
       132        In     tau( 132) = (   0.4999110   0.8343360   0.3321690  )
       133        As     tau( 133) = (   0.4184800   0.7506810   0.4149470  )
       134        As     tau( 134) = (   0.4191560   0.9170110   0.5808890  )
       135        As     tau( 135) = (   0.5836440   0.7520930   0.5784350  )
       136        As     tau( 136) = (   0.5818010   0.9181320   0.4147570  )
       137        In     tau( 137) = (   0.3286890   0.6691510   0.6699680  )
       138        In     tau( 138) = (   0.3381450   0.8313460   0.8288790  )
       139        In     tau( 139) = (   0.4983280   0.6711240   0.8385270  )
       140        In     tau( 140) = (   0.4972360   0.8293860   0.6622440  )
       141        As     tau( 141) = (   0.4179250   0.7478350   0.7482660  )
       142        Sb     tau( 142) = (   0.4191530   0.9185560   0.9198650  )
       143        As     tau( 143) = (   0.5824520   0.7491060   0.9224990  )
       144        Sb     tau( 144) = (   0.5820220   0.9176370   0.7485850  )
       145        In     tau( 145) = (   0.6652350  -0.0002280   0.0018410  )
       146        In     tau( 146) = (   0.6643790   0.1674010   0.1697980  )
       147        In     tau( 147) = (   0.8222530   0.0007570   0.1676200  )
       148        In     tau( 148) = (   0.8260000   0.1709090   0.0042640  )
       149        As     tau( 149) = (   0.7438870   0.0856250   0.0845700  )
       150        As     tau( 150) = (   0.7483280   0.2493370   0.2516500  )
       151        Sb     tau( 151) = (   0.9155590   0.0838110   0.2508200  )
       152        As     tau( 152) = (   0.9117770   0.2511680   0.0835780  )
       153        In     tau( 153) = (   0.6650580   0.0013010   0.3339030  )
       154        In     tau( 154) = (   0.6649400   0.1665710   0.5001100  )
       155        In     tau( 155) = (   0.8332790   0.0037180   0.4973470  )
       156        In     tau( 156) = (   0.8298300   0.1710880   0.3379250  )
       157        As     tau( 157) = (   0.7475720   0.0849510   0.4169270  )
       158        As     tau( 158) = (   0.7504140   0.2486880   0.5813150  )
       159        As     tau( 159) = (   0.9182870   0.0849860   0.5796390  )
       160        As     tau( 160) = (   0.9142790   0.2519410   0.4200090  )
       161        In     tau( 161) = (   0.6651820   0.0020360   0.6564980  )
       162        In     tau( 162) = (   0.6626300   0.1719400   0.8381000  )
       163        In     tau( 163) = (   0.8264540  -0.0044880   0.8394550  )
       164        In     tau( 164) = (   0.8379090   0.1699460   0.6609280  )
       165        Sb     tau( 165) = (   0.7484710   0.0862260   0.7486640  )
       166        As     tau( 166) = (   0.7478340   0.2535160   0.9179470  )
       167        Sb     tau( 167) = (   0.9149980   0.0858710   0.9183920  )
       168        As     tau( 168) = (   0.9163960   0.2526440   0.7456870  )
       169        In     tau( 169) = (   0.6641540   0.3329120   0.0020950  )
       170        In     tau( 170) = (   0.6687230   0.5036490   0.1619200  )
       171        In     tau( 171) = (   0.8303970   0.3314610   0.1683000  )
       172        In     tau( 172) = (   0.8282760   0.4942330  -0.0027340  )
       173        As     tau( 173) = (   0.7484360   0.4142750   0.0837450  )
       174        As     tau( 174) = (   0.7471050   0.5849340   0.2484420  )
       175        As     tau( 175) = (   0.9117140   0.4124740   0.2519230  )
       176        Sb     tau( 176) = (   0.9129830   0.5828320   0.0836380  )
       177        In     tau( 177) = (   0.6677470   0.3291790   0.3374190  )
       178        In     tau( 178) = (   0.6689820   0.5018110   0.4947880  )
       179        In     tau( 179) = (   0.8316960   0.3344750   0.5014940  )
       180        In     tau( 180) = (   0.8252340   0.4950610   0.3273270  )
       181        As     tau( 181) = (   0.7493020   0.4144300   0.4162040  )
       182        As     tau( 182) = (   0.7487640   0.5810720   0.5819180  )
       183        As     tau( 183) = (   0.9149850   0.4149980   0.5845630  )
       184        Sb     tau( 184) = (   0.9122450   0.5784710   0.4151390  )
       185        In     tau( 185) = (   0.6721030   0.3283020   0.6695670  )
       186        In     tau( 186) = (   0.6711910   0.4958830   0.8368680  )
       187        In     tau( 187) = (   0.8332410   0.3314740   0.8319430  )
       188        In     tau( 188) = (   0.8325650   0.4991830   0.6662510  )
       189        As     tau( 189) = (   0.7519340   0.4149390   0.7503790  )
       190        As     tau( 190) = (   0.7495100   0.5817780   0.9185680  )
       191        As     tau( 191) = (   0.9134660   0.4154660   0.9138890  )
       192        As     tau( 192) = (   0.9162310   0.5780420   0.7519860  )
       193        In     tau( 193) = (   0.6655960   0.6643450   0.0010840  )
       194        In     tau( 194) = (   0.6652330   0.8337840   0.1681510  )
       195        In     tau( 195) = (   0.8278140   0.6719400   0.1697290  )
       196        In     tau( 196) = (   0.8296860   0.8270210  -0.0020900  )
       197        As     tau( 197) = (   0.7454890   0.7498740   0.0838550  )
       198        As     tau( 198) = (   0.7457190   0.9161690   0.2525190  )
       199        As     tau( 199) = (   0.9111430   0.7531120   0.2526840  )
       200        Sb     tau( 200) = (   0.9141100   0.9167040   0.0836140  )
       201        In     tau( 201) = (   0.6648300   0.6674210   0.3309920  )
       202        In     tau( 202) = (   0.6650400   0.8357320   0.4962400  )
       203        In     tau( 203) = (   0.8246100   0.6665400   0.4982760  )
       204        In     tau( 204) = (   0.8306910   0.8358720   0.3354470  )
       205        As     tau( 205) = (   0.7459950   0.7511850   0.4145180  )
       206        As     tau( 206) = (   0.7482410   0.9203000   0.5759040  )
       207        Sb     tau( 207) = (   0.9149860   0.7509150   0.5825230  )
       208        As     tau( 208) = (   0.9149410   0.9198480   0.4158120  )
       209        In     tau( 209) = (   0.6639520   0.6655870   0.6582060  )
       210        In     tau( 210) = (   0.6631120   0.8325500   0.8418060  )
       211        In     tau( 211) = (   0.8360660   0.6602250   0.8357580  )
       212        In     tau( 212) = (   0.8268890   0.8401950   0.6626790  )
       213        Sb     tau( 213) = (   0.7480120   0.7485170   0.7510080  )
       214        As     tau( 214) = (   0.7461480   0.9138020   0.9221300  )
       215        As     tau( 215) = (   0.9158060   0.7483060   0.9147230  )
       216        Sb     tau( 216) = (   0.9186500   0.9187640   0.7506020  )

     number of k points=     8
                       cart. coord. in units 2pi/alat
        k(    1) = (   0.0000000   0.0000000   0.0000000), wk =   0.2500000
        k(    2) = (   0.0000000   0.0000000  -0.5000000), wk =   0.2500000
        k(    3) = (   0.0000000  -0.5000000  -0.5000000), wk =   0.2500000
        k(    4) = (  -0.5000000  -0.5000000  -0.5000000), wk =   0.2500000
        k(    5) = (  -0.5000000   0.0000000   0.0000000), wk =   0.2500000
        k(    6) = (   0.0000000  -0.5000000   0.0000000), wk =   0.2500000
        k(    7) = (  -0.5000000   0.0000000   0.5000000), wk =   0.2500000
        k(    8) = (  -0.5000000   0.5000000   0.0000000), wk =   0.2500000

     Dense  grid:  7692717 G-vectors     FFT dimensions: ( 250, 250, 250)

     Estimated max dynamical RAM per process >       2.96 GB

     Estimated total dynamical RAM >    1878.91 GB

     Initial potential from superposition of free atoms

     starting charge    3023.5448, renormalised to    3024.0000

     STARTING HUBBARD OCCUPATIONS:

     =================== HUBBARD OCCUPATIONS ===================
     ------------------------ ATOM    1 ------------------------
     Tr[ns(  1)] =   1.00000
     eigenvalues:
       0.167  0.167  0.167
     eigenvectors (columns):
       1.000  0.000  0.000
       0.000  1.000  0.000
       0.000  0.000  1.000
     occupation matrix ns (before diag.):
       0.167  0.000  0.000
       0.000  0.167  0.000
       0.000  0.000  0.167
     ------------------------ ATOM    2 ------------------------
     Tr[ns(  2)] =   1.00000
     eigenvalues:
       0.167  0.167  0.167
     eigenvectors (columns):
       1.000  0.000  0.000
       0.000  1.000  0.000
       0.000  0.000  1.000
     occupation matrix ns (before diag.):
       0.167  0.000  0.000
       0.000  0.167  0.000
       0.000  0.000  0.167
     ------------------------ ATOM    3 ------------------------
     Tr[ns(  3)] =   1.00000
     eigenvalues:
       0.167  0.167  0.167
     eigenvectors (columns):
       1.000  0.000  0.000
       0.000  1.000  0.000
       0.000  0.000  1.000
     occupation matrix ns (before diag.):
       0.167  0.000  0.000
       0.000  0.167  0.000
       0.000  0.000  0.167
     ------------------------ ATOM    4 ------------------------
     Tr[ns(  4)] =   1.00000
     eigenvalues:
       0.167  0.167  0.167
     eigenvectors (columns):
       1.000  0.000  0.000
       0.000  1.000  0.000
       0.000  0.000  1.000
     occupation matrix ns (before diag.):
       0.167  0.000  0.000
       0.000  0.167  0.000
       0.000  0.000  0.167
     ------------------------ ATOM    5 ------------------------
     Tr[ns(  5)] =   3.00000
     eigenvalues:
       0.500  0.500  0.500
     eigenvectors (columns):
       1.000  0.000  0.000
       0.000  1.000  0.000
       0.000  0.000  1.000
     occupation matrix ns (before diag.):
       0.500  0.000  0.000
       0.000  0.500  0.000
       0.000  0.000  0.500
     ------------------------ ATOM    6 ------------------------
     Tr[ns(  6)] =   3.00000
     eigenvalues:
       0.500  0.500  0.500
     eigenvectors (columns):
       1.000  0.000  0.000
       0.000  1.000  0.000
       0.000  0.000  1.000
     occupation matrix ns (before diag.):
       0.500  0.000  0.000
       0.000  0.500  0.000
       0.000  0.000  0.500
     ------------------------ ATOM    7 ------------------------
     Tr[ns(  7)] =   3.00000
     eigenvalues:
       0.500  0.500  0.500
     eigenvectors (columns):
       1.000  0.000  0.000
       0.000  1.000  0.000
       0.000  0.000  1.000
     occupation matrix ns (before diag.):
       0.500  0.000  0.000
       0.000  0.500  0.000
       0.000  0.000  0.500
     ------------------------ ATOM    8 ------------------------
     Tr[ns(  8)] =   3.00000
     eigenvalues:
       0.500  0.500  0.500
     eigenvectors (columns):
       1.000  0.000  0.000
       0.000  1.000  0.000
       0.000  0.000  1.000
     occupation matrix ns (before diag.):
       0.500  0.000  0.000
       0.000  0.500  0.000
       0.000  0.000  0.500
     ------------------------ ATOM    9 ------------------------
     Tr[ns(  9)] =   1.00000
     eigenvalues:
       0.167  0.167  0.167
     eigenvectors (columns):
       1.000  0.000  0.000
       0.000  1.000  0.000
       0.000  0.000  1.000
     occupation matrix ns (before diag.):
       0.167  0.000  0.000
       0.000  0.167  0.000
       0.000  0.000  0.167
     ------------------------ ATOM   10 ------------------------
     Tr[ns( 10)] =   1.00000
     eigenvalues:
       0.167  0.167  0.167
     eigenvectors (columns):
       1.000  0.000  0.000
       0.000  1.000  0.000
       0.000  0.000  1.000
     occupation matrix ns (before diag.):
       0.167  0.000  0.000
       0.000  0.167  0.000
       0.000  0.000  0.167
     ------------------------ ATOM   11 ------------------------
     Tr[ns( 11)] =   1.00000
     eigenvalues:
       0.167  0.167  0.167
     eigenvectors (columns):
       1.000  0.000  0.000
       0.000  1.000  0.000
       0.000  0.000  1.000
     occupation matrix ns (before diag.):
       0.167  0.000  0.000
       0.000  0.167  0.000
       0.000  0.000  0.167
     ------------------------ ATOM   12 ------------------------
     Tr[ns( 12)] =   1.00000
     eigenvalues:
       0.167  0.167  0.167
     eigenvectors (columns):
       1.000  0.000  0.000
       0.000  1.000  0.000
       0.000  0.000  1.000
     occupation matrix ns (before diag.):
       0.167  0.000  0.000
       0.000  0.167  0.000
       0.000  0.000  0.167
     ------------------------ ATOM   13 ------------------------
     Tr[ns( 13)] =   3.00000
     eigenvalues:
       0.500  0.500  0.500
     eigenvectors (columns):
       1.000  0.000  0.000
       0.000  1.000  0.000
       0.000  0.000  1.000
     occupation matrix ns (before diag.):
       0.500  0.000  0.000
       0.000  0.500  0.000
       0.000  0.000  0.500
     ------------------------ ATOM   14 ------------------------
     Tr[ns( 14)] =   3.00000
     eigenvalues:
       0.500  0.500  0.500
     eigenvectors (columns):
       1.000  0.000  0.000
       0.000  1.000  0.000
       0.000  0.000  1.000
     occupation matrix ns (before diag.):
       0.500  0.000  0.000
       0.000  0.500  0.000
       0.000  0.000  0.500
     ------------------------ ATOM   15 ------------------------
     Tr[ns( 15)] =   3.00000
     eigenvalues:
       0.500  0.500  0.500
     eigenvectors (columns):
       1.000  0.000  0.000
       0.000  1.000  0.000
       0.000  0.000  1.000
     occupation matrix ns (before diag.):
       0.500  0.000  0.000
       0.000  0.500  0.000
       0.000  0.000  0.500
     ------------------------ ATOM   16 ------------------------
     Tr[ns( 16)] =   3.00000
     eigenvalues:
       0.500  0.500  0.500
     eigenvectors (columns):
       1.000  0.000  0.000
       0.000  1.000  0.000
       0.000  0.000  1.000
     occupation matrix ns (before diag.):
       0.500  0.000  0.000
       0.000  0.500  0.000
       0.000  0.000  0.500
     ------------------------ ATOM   17 ------------------------
     Tr[ns( 17)] =   1.00000
     eigenvalues:
       0.167  0.167  0.167
     eigenvectors (columns):
       1.000  0.000  0.000
       0.000  1.000  0.000
       0.000  0.000  1.000
     occupation matrix ns (before diag.):
       0.167  0.000  0.000
       0.000  0.167  0.000
       0.000  0.000  0.167
     ------------------------ ATOM   18 ------------------------
     Tr[ns( 18)] =   1.00000
     eigenvalues:
       0.167  0.167  0.167
     eigenvectors (columns):
       1.000  0.000  0.000
       0.000  1.000  0.000
       0.000  0.000  1.000
     occupation matrix ns (before diag.):
       0.167  0.000  0.000
       0.000  0.167  0.000
       0.000  0.000  0.167
     ------------------------ ATOM   19 ------------------------
     Tr[ns( 19)] =   1.00000
     eigenvalues:
       0.167  0.167  0.167
     eigenvectors (columns):
       1.000  0.000  0.000
       0.000  1.000  0.000
       0.000  0.000  1.000
     occupation matrix ns (before diag.):
       0.167  0.000  0.000
       0.000  0.167  0.000
       0.000  0.000  0.167
     ------------------------ ATOM   20 ------------------------
     Tr[ns( 20)] =   1.00000
     eigenvalues:
       0.167  0.167  0.167
     eigenvectors (columns):
       1.000  0.000  0.000
       0.000  1.000  0.000
       0.000  0.000  1.000
     occupation matrix ns (before diag.):
       0.167  0.000  0.000
       0.000  0.167  0.000
       0.000  0.000  0.167
     ------------------------ ATOM   21 ------------------------
     Tr[ns( 21)] =   3.00000
     eigenvalues:
       0.500  0.500  0.500
     eigenvectors (columns):
       1.000  0.000  0.000
       0.000  1.000  0.000
       0.000  0.000  1.000
     occupation matrix ns (before diag.):
       0.500  0.000  0.000
       0.000  0.500  0.000
       0.000  0.000  0.500
     ------------------------ ATOM   22 ------------------------
     Tr[ns( 22)] =   3.00000
     eigenvalues:
       0.500  0.500  0.500
     eigenvectors (columns):
       1.000  0.000  0.000
       0.000  1.000  0.000
       0.000  0.000  1.000
     occupation matrix ns (before diag.):
       0.500  0.000  0.000
       0.000  0.500  0.000
       0.000  0.000  0.500
     ------------------------ ATOM   23 ------------------------
     Tr[ns( 23)] =   3.00000
     eigenvalues:
       0.500  0.500  0.500
     eigenvectors (columns):
       1.000  0.000  0.000
       0.000  1.000  0.000
       0.000  0.000  1.000
     occupation matrix ns (before diag.):
       0.500  0.000  0.000
       0.000  0.500  0.000
       0.000  0.000  0.500
     ------------------------ ATOM   24 ------------------------
     Tr[ns( 24)] =   3.00000
     eigenvalues:
       0.500  0.500  0.500
     eigenvectors (columns):
       1.000  0.000  0.000
       0.000  1.000  0.000
       0.000  0.000  1.000
     occupation matrix ns (before diag.):
       0.500  0.000  0.000
       0.000  0.500  0.000
       0.000  0.000  0.500
     ------------------------ ATOM   25 ------------------------
     Tr[ns( 25)] =   1.00000
     eigenvalues:
       0.167  0.167  0.167
     eigenvectors (columns):
       1.000  0.000  0.000
       0.000  1.000  0.000
       0.000  0.000  1.000
     occupation matrix ns (before diag.):
       0.167  0.000  0.000
       0.000  0.167  0.000
       0.000  0.000  0.167
     ------------------------ ATOM   26 ------------------------
     Tr[ns( 26)] =   1.00000
     eigenvalues:
       0.167  0.167  0.167
     eigenvectors (columns):
       1.000  0.000  0.000
       0.000  1.000  0.000
       0.000  0.000  1.000
     occupation matrix ns (before diag.):
       0.167  0.000  0.000
       0.000  0.167  0.000
       0.000  0.000  0.167
     ------------------------ ATOM   27 ------------------------
     Tr[ns( 27)] =   1.00000
     eigenvalues:
       0.167  0.167  0.167
     eigenvectors (columns):
       1.000  0.000  0.000
       0.000  1.000  0.000
       0.000  0.000  1.000
     occupation matrix ns (before diag.):
       0.167  0.000  0.000
       0.000  0.167  0.000
       0.000  0.000  0.167
     ------------------------ ATOM   28 ------------------------
     Tr[ns( 28)] =   1.00000
     eigenvalues:
       0.167  0.167  0.167
     eigenvectors (columns):
       1.000  0.000  0.000
       0.000  1.000  0.000
       0.000  0.000  1.000
     occupation matrix ns (before diag.):
       0.167  0.000  0.000
       0.000  0.167  0.000
       0.000  0.000  0.167
     ------------------------ ATOM   29 ------------------------
     Tr[ns( 29)] =   3.00000
     eigenvalues:
       0.500  0.500  0.500
     eigenvectors (columns):
       1.000  0.000  0.000
       0.000  1.000  0.000
       0.000  0.000  1.000
     occupation matrix ns (before diag.):
       0.500  0.000  0.000
       0.000  0.500  0.000
       0.000  0.000  0.500
     ------------------------ ATOM   30 ------------------------
     Tr[ns( 30)] =   3.00000
     eigenvalues:
       0.500  0.500  0.500
     eigenvectors (columns):
       1.000  0.000  0.000
       0.000  1.000  0.000
       0.000  0.000  1.000
     occupation matrix ns (before diag.):
       0.500  0.000  0.000
       0.000  0.500  0.000
       0.000  0.000  0.500
     ------------------------ ATOM   31 ------------------------
     Tr[ns( 31)] =   3.00000
     eigenvalues:
       0.500  0.500  0.500
     eigenvectors (columns):
       1.000  0.000  0.000
       0.000  1.000  0.000
       0.000  0.000  1.000
     occupation matrix ns (before diag.):
       0.500  0.000  0.000
       0.000  0.500  0.000
       0.000  0.000  0.500
     ------------------------ ATOM   32 ------------------------
     Tr[ns( 32)] =   3.00000
     eigenvalues:
       0.500  0.500  0.500
     eigenvectors (columns):
       1.000  0.000  0.000
       0.000  1.000  0.000
       0.000  0.000  1.000
     occupation matrix ns (before diag.):
       0.500  0.000  0.000
       0.000  0.500  0.000
       0.000  0.000  0.500
     ------------------------ ATOM   33 ------------------------
     Tr[ns( 33)] =   1.00000
     eigenvalues:
       0.167  0.167  0.167
     eigenvectors (columns):
       1.000  0.000  0.000
       0.000  1.000  0.000
       0.000  0.000  1.000
     occupation matrix ns (before diag.):
       0.167  0.000  0.000
       0.000  0.167  0.000
       0.000  0.000  0.167
     ------------------------ ATOM   34 ------------------------
     Tr[ns( 34)] =   1.00000
     eigenvalues:
       0.167  0.167  0.167
     eigenvectors (columns):
       1.000  0.000  0.000
       0.000  1.000  0.000
       0.000  0.000  1.000
     occupation matrix ns (before diag.):
       0.167  0.000  0.000
       0.000  0.167  0.000
       0.000  0.000  0.167
     ------------------------ ATOM   35 ------------------------
     Tr[ns( 35)] =   1.00000
     eigenvalues:
       0.167  0.167  0.167
     eigenvectors (columns):
       1.000  0.000  0.000
       0.000  1.000  0.000
       0.000  0.000  1.000
     occupation matrix ns (before diag.):
       0.167  0.000  0.000
       0.000  0.167  0.000
       0.000  0.000  0.167
     ------------------------ ATOM   36 ------------------------
     Tr[ns( 36)] =   1.00000
     eigenvalues:
       0.167  0.167  0.167
     eigenvectors (columns):
       1.000  0.000  0.000
       0.000  1.000  0.000
       0.000  0.000  1.000
     occupation matrix ns (before diag.):
       0.167  0.000  0.000
       0.000  0.167  0.000
       0.000  0.000  0.167
     ------------------------ ATOM   37 ------------------------
     Tr[ns( 37)] =   3.00000
     eigenvalues:
       0.500  0.500  0.500
     eigenvectors (columns):
       1.000  0.000  0.000
       0.000  1.000  0.000
       0.000  0.000  1.000
     occupation matrix ns (before diag.):
       0.500  0.000  0.000
       0.000  0.500  0.000
       0.000  0.000  0.500
     ------------------------ ATOM   38 ------------------------
     Tr[ns( 38)] =   3.00000
     eigenvalues:
       0.500  0.500  0.500
     eigenvectors (columns):
       1.000  0.000  0.000
       0.000  1.000  0.000
       0.000  0.000  1.000
     occupation matrix ns (before diag.):
       0.500  0.000  0.000
       0.000  0.500  0.000
       0.000  0.000  0.500
     ------------------------ ATOM   39 ------------------------
     Tr[ns( 39)] =   3.00000
     eigenvalues:
       0.500  0.500  0.500
     eigenvectors (columns):
       1.000  0.000  0.000
       0.000  1.000  0.000
       0.000  0.000  1.000
     occupation matrix ns (before diag.):
       0.500  0.000  0.000
       0.000  0.500  0.000
       0.000  0.000  0.500
     ------------------------ ATOM   40 ------------------------
     Tr[ns( 40)] =   3.00000
     eigenvalues:
       0.500  0.500  0.500
     eigenvectors (columns):
       1.000  0.000  0.000
       0.000  1.000  0.000
       0.000  0.000  1.000
     occupation matrix ns (before diag.):
       0.500  0.000  0.000
       0.000  0.500  0.000
       0.000  0.000  0.500
     ------------------------ ATOM   41 ------------------------
     Tr[ns( 41)] =   1.00000
     eigenvalues:
       0.167  0.167  0.167
     eigenvectors (columns):
       1.000  0.000  0.000
       0.000  1.000  0.000
       0.000  0.000  1.000
     occupation matrix ns (before diag.):
       0.167  0.000  0.000
       0.000  0.167  0.000
       0.000  0.000  0.167
     ------------------------ ATOM   42 ------------------------
     Tr[ns( 42)] =   1.00000
     eigenvalues:
       0.167  0.167  0.167
     eigenvectors (columns):
       1.000  0.000  0.000
       0.000  1.000  0.000
       0.000  0.000  1.000
     occupation matrix ns (before diag.):
       0.167  0.000  0.000
       0.000  0.167  0.000
       0.000  0.000  0.167
     ------------------------ ATOM   43 ------------------------
     Tr[ns( 43)] =   1.00000
     eigenvalues:
       0.167  0.167  0.167
     eigenvectors (columns):
       1.000  0.000  0.000
       0.000  1.000  0.000
       0.000  0.000  1.000
     occupation matrix ns (before diag.):
       0.167  0.000  0.000
       0.000  0.167  0.000
       0.000  0.000  0.167
     ------------------------ ATOM   44 ------------------------
     Tr[ns( 44)] =   1.00000
     eigenvalues:
       0.167  0.167  0.167
     eigenvectors (columns):
       1.000  0.000  0.000
       0.000  1.000  0.000
       0.000  0.000  1.000
     occupation matrix ns (before diag.):
       0.167  0.000  0.000
       0.000  0.167  0.000
       0.000  0.000  0.167
     ------------------------ ATOM   45 ------------------------
     Tr[ns( 45)] =   3.00000
     eigenvalues:
       0.500  0.500  0.500
     eigenvectors (columns):
       1.000  0.000  0.000
       0.000  1.000  0.000
       0.000  0.000  1.000
     occupation matrix ns (before diag.):
       0.500  0.000  0.000
       0.000  0.500  0.000
       0.000  0.000  0.500
     ------------------------ ATOM   46 ------------------------
     Tr[ns( 46)] =   3.00000
     eigenvalues:
       0.500  0.500  0.500
     eigenvectors (columns):
       1.000  0.000  0.000
       0.000  1.000  0.000
       0.000  0.000  1.000
     occupation matrix ns (before diag.):
       0.500  0.000  0.000
       0.000  0.500  0.000
       0.000  0.000  0.500
     ------------------------ ATOM   47 ------------------------
     Tr[ns( 47)] =   3.00000
     eigenvalues:
       0.500  0.500  0.500
     eigenvectors (columns):
       1.000  0.000  0.000
       0.000  1.000  0.000
       0.000  0.000  1.000
     occupation matrix ns (before diag.):
       0.500  0.000  0.000
       0.000  0.500  0.000
       0.000  0.000  0.500
     ------------------------ ATOM   48 ------------------------
     Tr[ns( 48)] =   3.00000
     eigenvalues:
       0.500  0.500  0.500
     eigenvectors (columns):
       1.000  0.000  0.000
       0.000  1.000  0.000
       0.000  0.000  1.000
     occupation matrix ns (before diag.):
       0.500  0.000  0.000
       0.000  0.500  0.000
       0.000  0.000  0.500
     ------------------------ ATOM   49 ------------------------
     Tr[ns( 49)] =   1.00000
     eigenvalues:
       0.167  0.167  0.167
     eigenvectors (columns):
       1.000  0.000  0.000
       0.000  1.000  0.000
       0.000  0.000  1.000
     occupation matrix ns (before diag.):
       0.167  0.000  0.000
       0.000  0.167  0.000
       0.000  0.000  0.167
     ------------------------ ATOM   50 ------------------------
     Tr[ns( 50)] =   1.00000
     eigenvalues:
       0.167  0.167  0.167
     eigenvectors (columns):
       1.000  0.000  0.000
       0.000  1.000  0.000
       0.000  0.000  1.000
     occupation matrix ns (before diag.):
       0.167  0.000  0.000
       0.000  0.167  0.000
       0.000  0.000  0.167
     ------------------------ ATOM   51 ------------------------
     Tr[ns( 51)] =   1.00000
     eigenvalues:
       0.167  0.167  0.167
     eigenvectors (columns):
       1.000  0.000  0.000
       0.000  1.000  0.000
       0.000  0.000  1.000
     occupation matrix ns (before diag.):
       0.167  0.000  0.000
       0.000  0.167  0.000
       0.000  0.000  0.167
     ------------------------ ATOM   52 ------------------------
     Tr[ns( 52)] =   1.00000
     eigenvalues:
       0.167  0.167  0.167
     eigenvectors (columns):
       1.000  0.000  0.000
       0.000  1.000  0.000
       0.000  0.000  1.000
     occupation matrix ns (before diag.):
       0.167  0.000  0.000
       0.000  0.167  0.000
       0.000  0.000  0.167
     ------------------------ ATOM   53 ------------------------
     Tr[ns( 53)] =   3.00000
     eigenvalues:
       0.500  0.500  0.500
     eigenvectors (columns):
       1.000  0.000  0.000
       0.000  1.000  0.000
       0.000  0.000  1.000
     occupation matrix ns (before diag.):
       0.500  0.000  0.000
       0.000  0.500  0.000
       0.000  0.000  0.500
     ------------------------ ATOM   54 ------------------------
     Tr[ns( 54)] =   3.00000
     eigenvalues:
       0.500  0.500  0.500
     eigenvectors (columns):
       1.000  0.000  0.000
       0.000  1.000  0.000
       0.000  0.000  1.000
     occupation matrix ns (before diag.):
       0.500  0.000  0.000
       0.000  0.500  0.000
       0.000  0.000  0.500
     ------------------------ ATOM   55 ------------------------
     Tr[ns( 55)] =   3.00000
     eigenvalues:
       0.500  0.500  0.500
     eigenvectors (columns):
       1.000  0.000  0.000
       0.000  1.000  0.000
       0.000  0.000  1.000
     occupation matrix ns (before diag.):
       0.500  0.000  0.000
       0.000  0.500  0.000
       0.000  0.000  0.500
     ------------------------ ATOM   56 ------------------------
     Tr[ns( 56)] =   3.00000
     eigenvalues:
       0.500  0.500  0.500
     eigenvectors (columns):
       1.000  0.000  0.000
       0.000  1.000  0.000
       0.000  0.000  1.000
     occupation matrix ns (before diag.):
       0.500  0.000  0.000
       0.000  0.500  0.000
       0.000  0.000  0.500
     ------------------------ ATOM   57 ------------------------
     Tr[ns( 57)] =   1.00000
     eigenvalues:
       0.167  0.167  0.167
     eigenvectors (columns):
       1.000  0.000  0.000
       0.000  1.000  0.000
       0.000  0.000  1.000
     occupation matrix ns (before diag.):
       0.167  0.000  0.000
       0.000  0.167  0.000
       0.000  0.000  0.167
     ------------------------ ATOM   58 ------------------------
     Tr[ns( 58)] =   1.00000
     eigenvalues:
       0.167  0.167  0.167
     eigenvectors (columns):
       1.000  0.000  0.000
       0.000  1.000  0.000
       0.000  0.000  1.000
     occupation matrix ns (before diag.):
       0.167  0.000  0.000
       0.000  0.167  0.000
       0.000  0.000  0.167
     ------------------------ ATOM   59 ------------------------
     Tr[ns( 59)] =   1.00000
     eigenvalues:
       0.167  0.167  0.167
     eigenvectors (columns):
       1.000  0.000  0.000
       0.000  1.000  0.000
       0.000  0.000  1.000
     occupation matrix ns (before diag.):
       0.167  0.000  0.000
       0.000  0.167  0.000
       0.000  0.000  0.167
     ------------------------ ATOM   60 ------------------------
     Tr[ns( 60)] =   1.00000
     eigenvalues:
       0.167  0.167  0.167
     eigenvectors (columns):
       1.000  0.000  0.000
       0.000  1.000  0.000
       0.000  0.000  1.000
     occupation matrix ns (before diag.):
       0.167  0.000  0.000
       0.000  0.167  0.000
       0.000  0.000  0.167
     ------------------------ ATOM   61 ------------------------
     Tr[ns( 61)] =   3.00000
     eigenvalues:
       0.500  0.500  0.500
     eigenvectors (columns):
       1.000  0.000  0.000
       0.000  1.000  0.000
       0.000  0.000  1.000
     occupation matrix ns (before diag.):
       0.500  0.000  0.000
       0.000  0.500  0.000
       0.000  0.000  0.500
     ------------------------ ATOM   62 ------------------------
     Tr[ns( 62)] =   3.00000
     eigenvalues:
       0.500  0.500  0.500
     eigenvectors (columns):
       1.000  0.000  0.000
       0.000  1.000  0.000
       0.000  0.000  1.000
     occupation matrix ns (before diag.):
       0.500  0.000  0.000
       0.000  0.500  0.000
       0.000  0.000  0.500
     ------------------------ ATOM   63 ------------------------
     Tr[ns( 63)] =   3.00000
     eigenvalues:
       0.500  0.500  0.500
     eigenvectors (columns):
       1.000  0.000  0.000
       0.000  1.000  0.000
       0.000  0.000  1.000
     occupation matrix ns (before diag.):
       0.500  0.000  0.000
       0.000  0.500  0.000
       0.000  0.000  0.500
     ------------------------ ATOM   64 ------------------------
     Tr[ns( 64)] =   3.00000
     eigenvalues:
       0.500  0.500  0.500
     eigenvectors (columns):
       1.000  0.000  0.000
       0.000  1.000  0.000
       0.000  0.000  1.000
     occupation matrix ns (before diag.):
       0.500  0.000  0.000
       0.000  0.500  0.000
       0.000  0.000  0.500
     ------------------------ ATOM   65 ------------------------
     Tr[ns( 65)] =   1.00000
     eigenvalues:
       0.167  0.167  0.167
     eigenvectors (columns):
       1.000  0.000  0.000
       0.000  1.000  0.000
       0.000  0.000  1.000
     occupation matrix ns (before diag.):
       0.167  0.000  0.000
       0.000  0.167  0.000
       0.000  0.000  0.167
     ------------------------ ATOM   66 ------------------------
     Tr[ns( 66)] =   1.00000
     eigenvalues:
       0.167  0.167  0.167
     eigenvectors (columns):
       1.000  0.000  0.000
       0.000  1.000  0.000
       0.000  0.000  1.000
     occupation matrix ns (before diag.):
       0.167  0.000  0.000
       0.000  0.167  0.000
       0.000  0.000  0.167
     ------------------------ ATOM   67 ------------------------
     Tr[ns( 67)] =   1.00000
     eigenvalues:
       0.167  0.167  0.167
     eigenvectors (columns):
       1.000  0.000  0.000
       0.000  1.000  0.000
       0.000  0.000  1.000
     occupation matrix ns (before diag.):
       0.167  0.000  0.000
       0.000  0.167  0.000
       0.000  0.000  0.167
     ------------------------ ATOM   68 ------------------------
     Tr[ns( 68)] =   1.00000
     eigenvalues:
       0.167  0.167  0.167
     eigenvectors (columns):
       1.000  0.000  0.000
       0.000  1.000  0.000
       0.000  0.000  1.000
     occupation matrix ns (before diag.):
       0.167  0.000  0.000
       0.000  0.167  0.000
       0.000  0.000  0.167
     ------------------------ ATOM   69 ------------------------
     Tr[ns( 69)] =   3.00000
     eigenvalues:
       0.500  0.500  0.500
     eigenvectors (columns):
       1.000  0.000  0.000
       0.000  1.000  0.000
       0.000  0.000  1.000
     occupation matrix ns (before diag.):
       0.500  0.000  0.000
       0.000  0.500  0.000
       0.000  0.000  0.500
     ------------------------ ATOM   70 ------------------------
     Tr[ns( 70)] =   3.00000
     eigenvalues:
       0.500  0.500  0.500
     eigenvectors (columns):
       1.000  0.000  0.000
       0.000  1.000  0.000
       0.000  0.000  1.000
     occupation matrix ns (before diag.):
       0.500  0.000  0.000
       0.000  0.500  0.000
       0.000  0.000  0.500
     ------------------------ ATOM   71 ------------------------
     Tr[ns( 71)] =   3.00000
     eigenvalues:
       0.500  0.500  0.500
     eigenvectors (columns):
       1.000  0.000  0.000
       0.000  1.000  0.000
       0.000  0.000  1.000
     occupation matrix ns (before diag.):
       0.500  0.000  0.000
       0.000  0.500  0.000
       0.000  0.000  0.500
     ------------------------ ATOM   72 ------------------------
     Tr[ns( 72)] =   3.00000
     eigenvalues:
       0.500  0.500  0.500
     eigenvectors (columns):
       1.000  0.000  0.000
       0.000  1.000  0.000
       0.000  0.000  1.000
     occupation matrix ns (before diag.):
       0.500  0.000  0.000
       0.000  0.500  0.000
       0.000  0.000  0.500
     ------------------------ ATOM   73 ------------------------
     Tr[ns( 73)] =   1.00000
     eigenvalues:
       0.167  0.167  0.167
     eigenvectors (columns):
       1.000  0.000  0.000
       0.000  1.000  0.000
       0.000  0.000  1.000
     occupation matrix ns (before diag.):
       0.167  0.000  0.000
       0.000  0.167  0.000
       0.000  0.000  0.167
     ------------------------ ATOM   74 ------------------------
     Tr[ns( 74)] =   1.00000
     eigenvalues:
       0.167  0.167  0.167
     eigenvectors (columns):
       1.000  0.000  0.000
       0.000  1.000  0.000
       0.000  0.000  1.000
     occupation matrix ns (before diag.):
       0.167  0.000  0.000
       0.000  0.167  0.000
       0.000  0.000  0.167
     ------------------------ ATOM   75 ------------------------
     Tr[ns( 75)] =   1.00000
     eigenvalues:
       0.167  0.167  0.167
     eigenvectors (columns):
       1.000  0.000  0.000
       0.000  1.000  0.000
       0.000  0.000  1.000
     occupation matrix ns (before diag.):
       0.167  0.000  0.000
       0.000  0.167  0.000
       0.000  0.000  0.167
     ------------------------ ATOM   76 ------------------------
     Tr[ns( 76)] =   1.00000
     eigenvalues:
       0.167  0.167  0.167
     eigenvectors (columns):
       1.000  0.000  0.000
       0.000  1.000  0.000
       0.000  0.000  1.000
     occupation matrix ns (before diag.):
       0.167  0.000  0.000
       0.000  0.167  0.000
       0.000  0.000  0.167
     ------------------------ ATOM   77 ------------------------
     Tr[ns( 77)] =   3.00000
     eigenvalues:
       0.500  0.500  0.500
     eigenvectors (columns):
       1.000  0.000  0.000
       0.000  1.000  0.000
       0.000  0.000  1.000
     occupation matrix ns (before diag.):
       0.500  0.000  0.000
       0.000  0.500  0.000
       0.000  0.000  0.500
     ------------------------ ATOM   78 ------------------------
     Tr[ns( 78)] =   3.00000
     eigenvalues:
       0.500  0.500  0.500
     eigenvectors (columns):
       1.000  0.000  0.000
       0.000  1.000  0.000
       0.000  0.000  1.000
     occupation matrix ns (before diag.):
       0.500  0.000  0.000
       0.000  0.500  0.000
       0.000  0.000  0.500
     ------------------------ ATOM   79 ------------------------
     Tr[ns( 79)] =   3.00000
     eigenvalues:
       0.500  0.500  0.500
     eigenvectors (columns):
       1.000  0.000  0.000
       0.000  1.000  0.000
       0.000  0.000  1.000
     occupation matrix ns (before diag.):
       0.500  0.000  0.000
       0.000  0.500  0.000
       0.000  0.000  0.500
     ------------------------ ATOM   80 ------------------------
     Tr[ns( 80)] =   3.00000
     eigenvalues:
       0.500  0.500  0.500
     eigenvectors (columns):
       1.000  0.000  0.000
       0.000  1.000  0.000
       0.000  0.000  1.000
     occupation matrix ns (before diag.):
       0.500  0.000  0.000
       0.000  0.500  0.000
       0.000  0.000  0.500
     ------------------------ ATOM   81 ------------------------
     Tr[ns( 81)] =   1.00000
     eigenvalues:
       0.167  0.167  0.167
     eigenvectors (columns):
       1.000  0.000  0.000
       0.000  1.000  0.000
       0.000  0.000  1.000
     occupation matrix ns (before diag.):
       0.167  0.000  0.000
       0.000  0.167  0.000
       0.000  0.000  0.167
     ------------------------ ATOM   82 ------------------------
     Tr[ns( 82)] =   1.00000
     eigenvalues:
       0.167  0.167  0.167
     eigenvectors (columns):
       1.000  0.000  0.000
       0.000  1.000  0.000
       0.000  0.000  1.000
     occupation matrix ns (before diag.):
       0.167  0.000  0.000
       0.000  0.167  0.000
       0.000  0.000  0.167
     ------------------------ ATOM   83 ------------------------
     Tr[ns( 83)] =   1.00000
     eigenvalues:
       0.167  0.167  0.167
     eigenvectors (columns):
       1.000  0.000  0.000
       0.000  1.000  0.000
       0.000  0.000  1.000
     occupation matrix ns (before diag.):
       0.167  0.000  0.000
       0.000  0.167  0.000
       0.000  0.000  0.167
     ------------------------ ATOM   84 ------------------------
     Tr[ns( 84)] =   1.00000
     eigenvalues:
       0.167  0.167  0.167
     eigenvectors (columns):
       1.000  0.000  0.000
       0.000  1.000  0.000
       0.000  0.000  1.000
     occupation matrix ns (before diag.):
       0.167  0.000  0.000
       0.000  0.167  0.000
       0.000  0.000  0.167
     ------------------------ ATOM   85 ------------------------
     Tr[ns( 85)] =   3.00000
     eigenvalues:
       0.500  0.500  0.500
     eigenvectors (columns):
       1.000  0.000  0.000
       0.000  1.000  0.000
       0.000  0.000  1.000
     occupation matrix ns (before diag.):
       0.500  0.000  0.000
       0.000  0.500  0.000
       0.000  0.000  0.500
     ------------------------ ATOM   86 ------------------------
     Tr[ns( 86)] =   3.00000
     eigenvalues:
       0.500  0.500  0.500
     eigenvectors (columns):
       1.000  0.000  0.000
       0.000  1.000  0.000
       0.000  0.000  1.000
     occupation matrix ns (before diag.):
       0.500  0.000  0.000
       0.000  0.500  0.000
       0.000  0.000  0.500
     ------------------------ ATOM   87 ------------------------
     Tr[ns( 87)] =   3.00000
     eigenvalues:
       0.500  0.500  0.500
     eigenvectors (columns):
       1.000  0.000  0.000
       0.000  1.000  0.000
       0.000  0.000  1.000
     occupation matrix ns (before diag.):
       0.500  0.000  0.000
       0.000  0.500  0.000
       0.000  0.000  0.500
     ------------------------ ATOM   88 ------------------------
     Tr[ns( 88)] =   3.00000
     eigenvalues:
       0.500  0.500  0.500
     eigenvectors (columns):
       1.000  0.000  0.000
       0.000  1.000  0.000
       0.000  0.000  1.000
     occupation matrix ns (before diag.):
       0.500  0.000  0.000
       0.000  0.500  0.000
       0.000  0.000  0.500
     ------------------------ ATOM   89 ------------------------
     Tr[ns( 89)] =   1.00000
     eigenvalues:
       0.167  0.167  0.167
     eigenvectors (columns):
       1.000  0.000  0.000
       0.000  1.000  0.000
       0.000  0.000  1.000
     occupation matrix ns (before diag.):
       0.167  0.000  0.000
       0.000  0.167  0.000
       0.000  0.000  0.167
     ------------------------ ATOM   90 ------------------------
     Tr[ns( 90)] =   1.00000
     eigenvalues:
       0.167  0.167  0.167
     eigenvectors (columns):
       1.000  0.000  0.000
       0.000  1.000  0.000
       0.000  0.000  1.000
     occupation matrix ns (before diag.):
       0.167  0.000  0.000
       0.000  0.167  0.000
       0.000  0.000  0.167
     ------------------------ ATOM   91 ------------------------
     Tr[ns( 91)] =   1.00000
     eigenvalues:
       0.167  0.167  0.167
     eigenvectors (columns):
       1.000  0.000  0.000
       0.000  1.000  0.000
       0.000  0.000  1.000
     occupation matrix ns (before diag.):
       0.167  0.000  0.000
       0.000  0.167  0.000
       0.000  0.000  0.167
     ------------------------ ATOM   92 ------------------------
     Tr[ns( 92)] =   1.00000
     eigenvalues:
       0.167  0.167  0.167
     eigenvectors (columns):
       1.000  0.000  0.000
       0.000  1.000  0.000
       0.000  0.000  1.000
     occupation matrix ns (before diag.):
       0.167  0.000  0.000
       0.000  0.167  0.000
       0.000  0.000  0.167
     ------------------------ ATOM   93 ------------------------
     Tr[ns( 93)] =   3.00000
     eigenvalues:
       0.500  0.500  0.500
     eigenvectors (columns):
       1.000  0.000  0.000
       0.000  1.000  0.000
       0.000  0.000  1.000
     occupation matrix ns (before diag.):
       0.500  0.000  0.000
       0.000  0.500  0.000
       0.000  0.000  0.500
     ------------------------ ATOM   94 ------------------------
     Tr[ns( 94)] =   3.00000
     eigenvalues:
       0.500  0.500  0.500
     eigenvectors (columns):
       1.000  0.000  0.000
       0.000  1.000  0.000
       0.000  0.000  1.000
     occupation matrix ns (before diag.):
       0.500  0.000  0.000
       0.000  0.500  0.000
       0.000  0.000  0.500
     ------------------------ ATOM   95 ------------------------
     Tr[ns( 95)] =   3.00000
     eigenvalues:
       0.500  0.500  0.500
     eigenvectors (columns):
       1.000  0.000  0.000
       0.000  1.000  0.000
       0.000  0.000  1.000
     occupation matrix ns (before diag.):
       0.500  0.000  0.000
       0.000  0.500  0.000
       0.000  0.000  0.500
     ------------------------ ATOM   96 ------------------------
     Tr[ns( 96)] =   3.00000
     eigenvalues:
       0.500  0.500  0.500
     eigenvectors (columns):
       1.000  0.000  0.000
       0.000  1.000  0.000
       0.000  0.000  1.000
     occupation matrix ns (before diag.):
       0.500  0.000  0.000
       0.000  0.500  0.000
       0.000  0.000  0.500
     ------------------------ ATOM   97 ------------------------
     Tr[ns( 97)] =   1.00000
     eigenvalues:
       0.167  0.167  0.167
     eigenvectors (columns):
       1.000  0.000  0.000
       0.000  1.000  0.000
       0.000  0.000  1.000
     occupation matrix ns (before diag.):
       0.167  0.000  0.000
       0.000  0.167  0.000
       0.000  0.000  0.167
     ------------------------ ATOM   98 ------------------------
     Tr[ns( 98)] =   1.00000
     eigenvalues:
       0.167  0.167  0.167
     eigenvectors (columns):
       1.000  0.000  0.000
       0.000  1.000  0.000
       0.000  0.000  1.000
     occupation matrix ns (before diag.):
       0.167  0.000  0.000
       0.000  0.167  0.000
       0.000  0.000  0.167
     ------------------------ ATOM   99 ------------------------
     Tr[ns( 99)] =   1.00000
     eigenvalues:
       0.167  0.167  0.167
     eigenvectors (columns):
       1.000  0.000  0.000
       0.000  1.000  0.000
       0.000  0.000  1.000
     occupation matrix ns (before diag.):
       0.167  0.000  0.000
       0.000  0.167  0.000
       0.000  0.000  0.167
     ------------------------ ATOM  100 ------------------------
     Tr[ns(100)] =   1.00000
     eigenvalues:
       0.167  0.167  0.167
     eigenvectors (columns):
       1.000  0.000  0.000
       0.000  1.000  0.000
       0.000  0.000  1.000
     occupation matrix ns (before diag.):
       0.167  0.000  0.000
       0.000  0.167  0.000
       0.000  0.000  0.167
     ------------------------ ATOM  101 ------------------------
     Tr[ns(101)] =   3.00000
     eigenvalues:
       0.500  0.500  0.500
     eigenvectors (columns):
       1.000  0.000  0.000
       0.000  1.000  0.000
       0.000  0.000  1.000
     occupation matrix ns (before diag.):
       0.500  0.000  0.000
       0.000  0.500  0.000
       0.000  0.000  0.500
     ------------------------ ATOM  102 ------------------------
     Tr[ns(102)] =   3.00000
     eigenvalues:
       0.500  0.500  0.500
     eigenvectors (columns):
       1.000  0.000  0.000
       0.000  1.000  0.000
       0.000  0.000  1.000
     occupation matrix ns (before diag.):
       0.500  0.000  0.000
       0.000  0.500  0.000
       0.000  0.000  0.500
     ------------------------ ATOM  103 ------------------------
     Tr[ns(103)] =   3.00000
     eigenvalues:
       0.500  0.500  0.500
     eigenvectors (columns):
       1.000  0.000  0.000
       0.000  1.000  0.000
       0.000  0.000  1.000
     occupation matrix ns (before diag.):
       0.500  0.000  0.000
       0.000  0.500  0.000
       0.000  0.000  0.500
     ------------------------ ATOM  104 ------------------------
     Tr[ns(104)] =   3.00000
     eigenvalues:
       0.500  0.500  0.500
     eigenvectors (columns):
       1.000  0.000  0.000
       0.000  1.000  0.000
       0.000  0.000  1.000
     occupation matrix ns (before diag.):
       0.500  0.000  0.000
       0.000  0.500  0.000
       0.000  0.000  0.500
     ------------------------ ATOM  105 ------------------------
     Tr[ns(105)] =   1.00000
     eigenvalues:
       0.167  0.167  0.167
     eigenvectors (columns):
       1.000  0.000  0.000
       0.000  1.000  0.000
       0.000  0.000  1.000
     occupation matrix ns (before diag.):
       0.167  0.000  0.000
       0.000  0.167  0.000
       0.000  0.000  0.167
     ------------------------ ATOM  106 ------------------------
     Tr[ns(106)] =   1.00000
     eigenvalues:
       0.167  0.167  0.167
     eigenvectors (columns):
       1.000  0.000  0.000
       0.000  1.000  0.000
       0.000  0.000  1.000
     occupation matrix ns (before diag.):
       0.167  0.000  0.000
       0.000  0.167  0.000
       0.000  0.000  0.167
     ------------------------ ATOM  107 ------------------------
     Tr[ns(107)] =   1.00000
     eigenvalues:
       0.167  0.167  0.167
     eigenvectors (columns):
       1.000  0.000  0.000
       0.000  1.000  0.000
       0.000  0.000  1.000
     occupation matrix ns (before diag.):
       0.167  0.000  0.000
       0.000  0.167  0.000
       0.000  0.000  0.167
     ------------------------ ATOM  108 ------------------------
     Tr[ns(108)] =   1.00000
     eigenvalues:
       0.167  0.167  0.167
     eigenvectors (columns):
       1.000  0.000  0.000
       0.000  1.000  0.000
       0.000  0.000  1.000
     occupation matrix ns (before diag.):
       0.167  0.000  0.000
       0.000  0.167  0.000
       0.000  0.000  0.167
     ------------------------ ATOM  109 ------------------------
     Tr[ns(109)] =   3.00000
     eigenvalues:
       0.500  0.500  0.500
     eigenvectors (columns):
       1.000  0.000  0.000
       0.000  1.000  0.000
       0.000  0.000  1.000
     occupation matrix ns (before diag.):
       0.500  0.000  0.000
       0.000  0.500  0.000
       0.000  0.000  0.500
     ------------------------ ATOM  110 ------------------------
     Tr[ns(110)] =   3.00000
     eigenvalues:
       0.500  0.500  0.500
     eigenvectors (columns):
       1.000  0.000  0.000
       0.000  1.000  0.000
       0.000  0.000  1.000
     occupation matrix ns (before diag.):
       0.500  0.000  0.000
       0.000  0.500  0.000
       0.000  0.000  0.500
     ------------------------ ATOM  111 ------------------------
     Tr[ns(111)] =   3.00000
     eigenvalues:
       0.500  0.500  0.500
     eigenvectors (columns):
       1.000  0.000  0.000
       0.000  1.000  0.000
       0.000  0.000  1.000
     occupation matrix ns (before diag.):
       0.500  0.000  0.000
       0.000  0.500  0.000
       0.000  0.000  0.500
     ------------------------ ATOM  112 ------------------------
     Tr[ns(112)] =   3.00000
     eigenvalues:
       0.500  0.500  0.500
     eigenvectors (columns):
       1.000  0.000  0.000
       0.000  1.000  0.000
       0.000  0.000  1.000
     occupation matrix ns (before diag.):
       0.500  0.000  0.000
       0.000  0.500  0.000
       0.000  0.000  0.500
     ------------------------ ATOM  113 ------------------------
     Tr[ns(113)] =   1.00000
     eigenvalues:
       0.167  0.167  0.167
     eigenvectors (columns):
       1.000  0.000  0.000
       0.000  1.000  0.000
       0.000  0.000  1.000
     occupation matrix ns (before diag.):
       0.167  0.000  0.000
       0.000  0.167  0.000
       0.000  0.000  0.167
     ------------------------ ATOM  114 ------------------------
     Tr[ns(114)] =   1.00000
     eigenvalues:
       0.167  0.167  0.167
     eigenvectors (columns):
       1.000  0.000  0.000
       0.000  1.000  0.000
       0.000  0.000  1.000
     occupation matrix ns (before diag.):
       0.167  0.000  0.000
       0.000  0.167  0.000
       0.000  0.000  0.167
     ------------------------ ATOM  115 ------------------------
     Tr[ns(115)] =   1.00000
     eigenvalues:
       0.167  0.167  0.167
     eigenvectors (columns):
       1.000  0.000  0.000
       0.000  1.000  0.000
       0.000  0.000  1.000
     occupation matrix ns (before diag.):
       0.167  0.000  0.000
       0.000  0.167  0.000
       0.000  0.000  0.167
     ------------------------ ATOM  116 ------------------------
     Tr[ns(116)] =   1.00000
     eigenvalues:
       0.167  0.167  0.167
     eigenvectors (columns):
       1.000  0.000  0.000
       0.000  1.000  0.000
       0.000  0.000  1.000
     occupation matrix ns (before diag.):
       0.167  0.000  0.000
       0.000  0.167  0.000
       0.000  0.000  0.167
     ------------------------ ATOM  117 ------------------------
     Tr[ns(117)] =   3.00000
     eigenvalues:
       0.500  0.500  0.500
     eigenvectors (columns):
       1.000  0.000  0.000
       0.000  1.000  0.000
       0.000  0.000  1.000
     occupation matrix ns (before diag.):
       0.500  0.000  0.000
       0.000  0.500  0.000
       0.000  0.000  0.500
     ------------------------ ATOM  118 ------------------------
     Tr[ns(118)] =   3.00000
     eigenvalues:
       0.500  0.500  0.500
     eigenvectors (columns):
       1.000  0.000  0.000
       0.000  1.000  0.000
       0.000  0.000  1.000
     occupation matrix ns (before diag.):
       0.500  0.000  0.000
       0.000  0.500  0.000
       0.000  0.000  0.500
     ------------------------ ATOM  119 ------------------------
     Tr[ns(119)] =   3.00000
     eigenvalues:
       0.500  0.500  0.500
     eigenvectors (columns):
       1.000  0.000  0.000
       0.000  1.000  0.000
       0.000  0.000  1.000
     occupation matrix ns (before diag.):
       0.500  0.000  0.000
       0.000  0.500  0.000
       0.000  0.000  0.500
     ------------------------ ATOM  120 ------------------------
     Tr[ns(120)] =   3.00000
     eigenvalues:
       0.500  0.500  0.500
     eigenvectors (columns):
       1.000  0.000  0.000
       0.000  1.000  0.000
       0.000  0.000  1.000
     occupation matrix ns (before diag.):
       0.500  0.000  0.000
       0.000  0.500  0.000
       0.000  0.000  0.500
     ------------------------ ATOM  121 ------------------------
     Tr[ns(121)] =   1.00000
     eigenvalues:
       0.167  0.167  0.167
     eigenvectors (columns):
       1.000  0.000  0.000
       0.000  1.000  0.000
       0.000  0.000  1.000
     occupation matrix ns (before diag.):
       0.167  0.000  0.000
       0.000  0.167  0.000
       0.000  0.000  0.167
     ------------------------ ATOM  122 ------------------------
     Tr[ns(122)] =   1.00000
     eigenvalues:
       0.167  0.167  0.167
     eigenvectors (columns):
       1.000  0.000  0.000
       0.000  1.000  0.000
       0.000  0.000  1.000
     occupation matrix ns (before diag.):
       0.167  0.000  0.000
       0.000  0.167  0.000
       0.000  0.000  0.167
     ------------------------ ATOM  123 ------------------------
     Tr[ns(123)] =   1.00000
     eigenvalues:
       0.167  0.167  0.167
     eigenvectors (columns):
       1.000  0.000  0.000
       0.000  1.000  0.000
       0.000  0.000  1.000
     occupation matrix ns (before diag.):
       0.167  0.000  0.000
       0.000  0.167  0.000
       0.000  0.000  0.167
     ------------------------ ATOM  124 ------------------------
     Tr[ns(124)] =   1.00000
     eigenvalues:
       0.167  0.167  0.167
     eigenvectors (columns):
       1.000  0.000  0.000
       0.000  1.000  0.000
       0.000  0.000  1.000
     occupation matrix ns (before diag.):
       0.167  0.000  0.000
       0.000  0.167  0.000
       0.000  0.000  0.167
     ------------------------ ATOM  125 ------------------------
     Tr[ns(125)] =   3.00000
     eigenvalues:
       0.500  0.500  0.500
     eigenvectors (columns):
       1.000  0.000  0.000
       0.000  1.000  0.000
       0.000  0.000  1.000
     occupation matrix ns (before diag.):
       0.500  0.000  0.000
       0.000  0.500  0.000
       0.000  0.000  0.500
     ------------------------ ATOM  126 ------------------------
     Tr[ns(126)] =   3.00000
     eigenvalues:
       0.500  0.500  0.500
     eigenvectors (columns):
       1.000  0.000  0.000
       0.000  1.000  0.000
       0.000  0.000  1.000
     occupation matrix ns (before diag.):
       0.500  0.000  0.000
       0.000  0.500  0.000
       0.000  0.000  0.500
     ------------------------ ATOM  127 ------------------------
     Tr[ns(127)] =   3.00000
     eigenvalues:
       0.500  0.500  0.500
     eigenvectors (columns):
       1.000  0.000  0.000
       0.000  1.000  0.000
       0.000  0.000  1.000
     occupation matrix ns (before diag.):
       0.500  0.000  0.000
       0.000  0.500  0.000
       0.000  0.000  0.500
     ------------------------ ATOM  128 ------------------------
     Tr[ns(128)] =   3.00000
     eigenvalues:
       0.500  0.500  0.500
     eigenvectors (columns):
       1.000  0.000  0.000
       0.000  1.000  0.000
       0.000  0.000  1.000
     occupation matrix ns (before diag.):
       0.500  0.000  0.000
       0.000  0.500  0.000
       0.000  0.000  0.500
     ------------------------ ATOM  129 ------------------------
     Tr[ns(129)] =   1.00000
     eigenvalues:
       0.167  0.167  0.167
     eigenvectors (columns):
       1.000  0.000  0.000
       0.000  1.000  0.000
       0.000  0.000  1.000
     occupation matrix ns (before diag.):
       0.167  0.000  0.000
       0.000  0.167  0.000
       0.000  0.000  0.167
     ------------------------ ATOM  130 ------------------------
     Tr[ns(130)] =   1.00000
     eigenvalues:
       0.167  0.167  0.167
     eigenvectors (columns):
       1.000  0.000  0.000
       0.000  1.000  0.000
       0.000  0.000  1.000
     occupation matrix ns (before diag.):
       0.167  0.000  0.000
       0.000  0.167  0.000
       0.000  0.000  0.167
     ------------------------ ATOM  131 ------------------------
     Tr[ns(131)] =   1.00000
     eigenvalues:
       0.167  0.167  0.167
     eigenvectors (columns):
       1.000  0.000  0.000
       0.000  1.000  0.000
       0.000  0.000  1.000
     occupation matrix ns (before diag.):
       0.167  0.000  0.000
       0.000  0.167  0.000
       0.000  0.000  0.167
     ------------------------ ATOM  132 ------------------------
     Tr[ns(132)] =   1.00000
     eigenvalues:
       0.167  0.167  0.167
     eigenvectors (columns):
       1.000  0.000  0.000
       0.000  1.000  0.000
       0.000  0.000  1.000
     occupation matrix ns (before diag.):
       0.167  0.000  0.000
       0.000  0.167  0.000
       0.000  0.000  0.167
     ------------------------ ATOM  133 ------------------------
     Tr[ns(133)] =   3.00000
     eigenvalues:
       0.500  0.500  0.500
     eigenvectors (columns):
       1.000  0.000  0.000
       0.000  1.000  0.000
       0.000  0.000  1.000
     occupation matrix ns (before diag.):
       0.500  0.000  0.000
       0.000  0.500  0.000
       0.000  0.000  0.500
     ------------------------ ATOM  134 ------------------------
     Tr[ns(134)] =   3.00000
     eigenvalues:
       0.500  0.500  0.500
     eigenvectors (columns):
       1.000  0.000  0.000
       0.000  1.000  0.000
       0.000  0.000  1.000
     occupation matrix ns (before diag.):
       0.500  0.000  0.000
       0.000  0.500  0.000
       0.000  0.000  0.500
     ------------------------ ATOM  135 ------------------------
     Tr[ns(135)] =   3.00000
     eigenvalues:
       0.500  0.500  0.500
     eigenvectors (columns):
       1.000  0.000  0.000
       0.000  1.000  0.000
       0.000  0.000  1.000
     occupation matrix ns (before diag.):
       0.500  0.000  0.000
       0.000  0.500  0.000
       0.000  0.000  0.500
     ------------------------ ATOM  136 ------------------------
     Tr[ns(136)] =   3.00000
     eigenvalues:
       0.500  0.500  0.500
     eigenvectors (columns):
       1.000  0.000  0.000
       0.000  1.000  0.000
       0.000  0.000  1.000
     occupation matrix ns (before diag.):
       0.500  0.000  0.000
       0.000  0.500  0.000
       0.000  0.000  0.500
     ------------------------ ATOM  137 ------------------------
     Tr[ns(137)] =   1.00000
     eigenvalues:
       0.167  0.167  0.167
     eigenvectors (columns):
       1.000  0.000  0.000
       0.000  1.000  0.000
       0.000  0.000  1.000
     occupation matrix ns (before diag.):
       0.167  0.000  0.000
       0.000  0.167  0.000
       0.000  0.000  0.167
     ------------------------ ATOM  138 ------------------------
     Tr[ns(138)] =   1.00000
     eigenvalues:
       0.167  0.167  0.167
     eigenvectors (columns):
       1.000  0.000  0.000
       0.000  1.000  0.000
       0.000  0.000  1.000
     occupation matrix ns (before diag.):
       0.167  0.000  0.000
       0.000  0.167  0.000
       0.000  0.000  0.167
     ------------------------ ATOM  139 ------------------------
     Tr[ns(139)] =   1.00000
     eigenvalues:
       0.167  0.167  0.167
     eigenvectors (columns):
       1.000  0.000  0.000
       0.000  1.000  0.000
       0.000  0.000  1.000
     occupation matrix ns (before diag.):
       0.167  0.000  0.000
       0.000  0.167  0.000
       0.000  0.000  0.167
     ------------------------ ATOM  140 ------------------------
     Tr[ns(140)] =   1.00000
     eigenvalues:
       0.167  0.167  0.167
     eigenvectors (columns):
       1.000  0.000  0.000
       0.000  1.000  0.000
       0.000  0.000  1.000
     occupation matrix ns (before diag.):
       0.167  0.000  0.000
       0.000  0.167  0.000
       0.000  0.000  0.167
     ------------------------ ATOM  141 ------------------------
     Tr[ns(141)] =   3.00000
     eigenvalues:
       0.500  0.500  0.500
     eigenvectors (columns):
       1.000  0.000  0.000
       0.000  1.000  0.000
       0.000  0.000  1.000
     occupation matrix ns (before diag.):
       0.500  0.000  0.000
       0.000  0.500  0.000
       0.000  0.000  0.500
     ------------------------ ATOM  142 ------------------------
     Tr[ns(142)] =   3.00000
     eigenvalues:
       0.500  0.500  0.500
     eigenvectors (columns):
       1.000  0.000  0.000
       0.000  1.000  0.000
       0.000  0.000  1.000
     occupation matrix ns (before diag.):
       0.500  0.000  0.000
       0.000  0.500  0.000
       0.000  0.000  0.500
     ------------------------ ATOM  143 ------------------------
     Tr[ns(143)] =   3.00000
     eigenvalues:
       0.500  0.500  0.500
     eigenvectors (columns):
       1.000  0.000  0.000
       0.000  1.000  0.000
       0.000  0.000  1.000
     occupation matrix ns (before diag.):
       0.500  0.000  0.000
       0.000  0.500  0.000
       0.000  0.000  0.500
     ------------------------ ATOM  144 ------------------------
     Tr[ns(144)] =   3.00000
     eigenvalues:
       0.500  0.500  0.500
     eigenvectors (columns):
       1.000  0.000  0.000
       0.000  1.000  0.000
       0.000  0.000  1.000
     occupation matrix ns (before diag.):
       0.500  0.000  0.000
       0.000  0.500  0.000
       0.000  0.000  0.500
     ------------------------ ATOM  145 ------------------------
     Tr[ns(145)] =   1.00000
     eigenvalues:
       0.167  0.167  0.167
     eigenvectors (columns):
       1.000  0.000  0.000
       0.000  1.000  0.000
       0.000  0.000  1.000
     occupation matrix ns (before diag.):
       0.167  0.000  0.000
       0.000  0.167  0.000
       0.000  0.000  0.167
     ------------------------ ATOM  146 ------------------------
     Tr[ns(146)] =   1.00000
     eigenvalues:
       0.167  0.167  0.167
     eigenvectors (columns):
       1.000  0.000  0.000
       0.000  1.000  0.000
       0.000  0.000  1.000
     occupation matrix ns (before diag.):
       0.167  0.000  0.000
       0.000  0.167  0.000
       0.000  0.000  0.167
     ------------------------ ATOM  147 ------------------------
     Tr[ns(147)] =   1.00000
     eigenvalues:
       0.167  0.167  0.167
     eigenvectors (columns):
       1.000  0.000  0.000
       0.000  1.000  0.000
       0.000  0.000  1.000
     occupation matrix ns (before diag.):
       0.167  0.000  0.000
       0.000  0.167  0.000
       0.000  0.000  0.167
     ------------------------ ATOM  148 ------------------------
     Tr[ns(148)] =   1.00000
     eigenvalues:
       0.167  0.167  0.167
     eigenvectors (columns):
       1.000  0.000  0.000
       0.000  1.000  0.000
       0.000  0.000  1.000
     occupation matrix ns (before diag.):
       0.167  0.000  0.000
       0.000  0.167  0.000
       0.000  0.000  0.167
     ------------------------ ATOM  149 ------------------------
     Tr[ns(149)] =   3.00000
     eigenvalues:
       0.500  0.500  0.500
     eigenvectors (columns):
       1.000  0.000  0.000
       0.000  1.000  0.000
       0.000  0.000  1.000
     occupation matrix ns (before diag.):
       0.500  0.000  0.000
       0.000  0.500  0.000
       0.000  0.000  0.500
     ------------------------ ATOM  150 ------------------------
     Tr[ns(150)] =   3.00000
     eigenvalues:
       0.500  0.500  0.500
     eigenvectors (columns):
       1.000  0.000  0.000
       0.000  1.000  0.000
       0.000  0.000  1.000
     occupation matrix ns (before diag.):
       0.500  0.000  0.000
       0.000  0.500  0.000
       0.000  0.000  0.500
     ------------------------ ATOM  151 ------------------------
     Tr[ns(151)] =   3.00000
     eigenvalues:
       0.500  0.500  0.500
     eigenvectors (columns):
       1.000  0.000  0.000
       0.000  1.000  0.000
       0.000  0.000  1.000
     occupation matrix ns (before diag.):
       0.500  0.000  0.000
       0.000  0.500  0.000
       0.000  0.000  0.500
     ------------------------ ATOM  152 ------------------------
[...]
   -26.8712 -26.8712 -26.8710 -26.8710 -26.8710 -26.8709 -26.8709 -26.8708
   -26.8708 -26.8707 -26.8706 -26.8702 -26.8702 -26.8693 -26.8693 -26.8690
   -26.8689 -26.8687 -26.8685 -26.8681 -26.8675 -26.8671 -26.8665 -26.8664
   -26.8663 -26.8663 -26.8662 -26.8662 -26.8655 -26.8651 -26.8651 -26.8649
   -26.8648 -26.8648 -26.8646 -26.8646 -26.8645 -26.8644 -26.8643 -26.8639
   -26.8638 -26.8635 -26.8624 -26.8623 -26.8622 -26.8619 -26.8617 -26.8613
   -26.8612 -26.8611 -26.8607 -26.8604 -26.8598 -26.8591 -26.8590 -26.8588
   -26.8580 -26.8577 -26.8575 -26.8563 -26.8548 -26.8546 -26.8541 -26.8523
   -26.8515 -26.8509 -26.8469 -26.8444 -26.8391 -20.2268 -20.2235 -20.2211
   -20.2203 -20.2192 -20.2191 -20.2187 -20.2184 -20.2167 -20.2158 -20.2147
   -20.2146 -20.2145 -20.2142 -20.2127 -20.2117 -20.2116 -20.2112 -20.2108
   -20.2107 -20.2102 -20.2095 -20.2093 -20.2091 -20.2082 -20.2081 -20.2074
   -20.2071 -20.2069 -20.2044 -20.2044 -20.2043 -20.2037 -20.2037 -20.2034
   -20.2032 -20.2024 -20.2012 -20.2010 -20.2007 -20.2005 -20.1996 -20.1989
   -20.1989 -20.1989 -20.1986 -20.1984 -20.1983 -20.1982 -20.1974 -20.1973
   -20.1970 -20.1968 -20.1967 -20.1964 -20.1959 -20.1959 -20.1956 -20.1952
   -20.1948 -20.1946 -20.1942 -20.1938 -20.1935 -20.1931 -20.1927 -20.1920
   -20.1918 -20.1916 -20.1916 -20.1915 -20.1914 -20.1913 -20.1907 -20.1907
   -20.1907 -20.1907 -20.1904 -20.1899 -20.1892 -20.1892 -20.1887 -20.1887
   -20.1885 -20.1882 -20.1880 -20.1879 -20.1878 -20.1877 -20.1875 -20.1873
   -20.1872 -20.1871 -20.1868 -20.1865 -20.1857 -20.1855 -20.1855 -20.1853
   -20.1851 -20.1840 -20.1832 -20.1830 -20.1830 -20.1821 -20.1792 -20.1792
   -20.1781 -20.1778 -20.1770 -20.1770 -20.1770 -20.1752 -20.1749 -20.1746
   -20.1729 -20.1727 -20.1721 -20.1716 -20.1715 -20.1711 -20.1707 -20.1705
   -20.1700 -20.1694 -20.1687 -20.1686 -20.1680 -20.1666 -20.1660 -20.1657
   -20.1648 -20.1643 -20.1638 -20.1618  -7.1791  -7.1711  -7.1662  -7.1635
    -7.1620  -7.1604  -7.1600  -7.1568  -7.1553  -7.1553  -7.1543  -7.1534
    -7.1524  -7.1513  -7.1499  -7.1491  -7.1485  -7.1478  -7.1471  -7.1469
    -7.1465  -7.1460  -7.1453  -7.1445  -7.1435  -7.1424  -7.1416  -7.1411
    -7.1408  -7.1402  -7.1395  -7.1391  -7.1387  -7.1383  -7.1373  -7.1367
    -7.1362  -7.1360  -7.1351  -7.1338  -7.1331  -7.1328  -7.1316  -7.1313
    -7.1308  -7.1299  -7.1293  -7.1289  -7.1284  -7.1277  -7.1275  -7.1259
    -7.1254  -7.1249  -7.1239  -7.1224  -7.1219  -7.1210  -7.1210  -7.1196
    -7.1190  -7.1189  -7.1181  -7.1178  -7.1167  -7.1153  -7.1150  -7.1142
    -7.1139  -7.1120  -7.1111  -7.1105  -7.1091  -7.1072  -7.1046  -7.1013
    -7.0999  -7.0987  -7.0966  -7.0949  -7.0926  -7.0909  -7.0884  -7.0853
    -7.0845  -7.0830  -7.0822  -7.0812  -7.0801  -7.0789  -7.0783  -7.0781
    -7.0778  -7.0770  -7.0750  -7.0741  -7.0734  -7.0733  -7.0726  -7.0714
    -7.0709  -7.0698  -7.0693  -7.0690  -7.0686  -7.0676  -7.0671  -7.0668
    -7.0662  -7.0654  -7.0649  -7.0646  -7.0639  -7.0636  -7.0634  -7.0630
    -7.0621  -7.0617  -7.0608  -7.0601  -7.0592  -7.0589  -7.0585  -7.0582
    -7.0575  -7.0569  -7.0564  -7.0559  -7.0556  -7.0554  -7.0545  -7.0543
    -7.0536  -7.0534  -7.0529  -7.0522  -7.0519  -7.0514  -7.0506  -7.0503
    -7.0496  -7.0493  -7.0486  -7.0482  -7.0474  -7.0471  -7.0468  -7.0459
    -7.0457  -7.0455  -7.0444  -7.0439  -7.0433  -7.0431  -7.0427  -7.0418
    -7.0415  -7.0410  -7.0408  -7.0403  -7.0402  -7.0396  -7.0393  -7.0389
    -7.0386  -7.0383  -7.0381  -7.0375  -7.0369  -7.0366  -7.0364  -7.0359
    -7.0355  -7.0349  -7.0345  -7.0344  -7.0341  -7.0338  -7.0334  -7.0328
    -7.0325  -7.0319  -7.0318  -7.0311  -7.0310  -7.0305  -7.0302  -7.0300
    -7.0295  -7.0290  -7.0286  -7.0282  -7.0280  -7.0278  -7.0275  -7.0273
    -7.0269  -7.0266  -7.0259  -7.0257  -7.0254  -7.0247  -7.0241  -7.0240
    -7.0237  -7.0235  -7.0229  -7.0226  -7.0225  -7.0220  -7.0219  -7.0216
    -7.0212  -7.0207  -7.0205  -7.0201  -7.0195  -7.0193  -7.0191  -7.0187
    -7.0185  -7.0182  -7.0177  -7.0169  -7.0164  -7.0161  -7.0159  -7.0158
    -7.0156  -7.0154  -7.0150  -7.0145  -7.0142  -7.0139  -7.0137  -7.0135
    -7.0130  -7.0129  -7.0126  -7.0125  -7.0117  -7.0114  -7.0109  -7.0105
    -7.0104  -7.0102  -7.0096  -7.0091  -7.0090  -7.0085  -7.0084  -7.0079
    -7.0076  -7.0073  -7.0070  -7.0067  -7.0064  -7.0059  -7.0054  -7.0049
    -7.0047  -7.0040  -7.0039  -7.0032  -7.0030  -7.0029  -7.0028  -7.0024
    -7.0022  -7.0019  -7.0018  -7.0016  -7.0010  -7.0005  -7.0001  -6.9999
    -6.9993  -6.9989  -6.9986  -6.9982  -6.9977  -6.9975  -6.9967  -6.9963
    -6.9956  -6.9954  -6.9952  -6.9951  -6.9944  -6.9940  -6.9935  -6.9929
    -6.9923  -6.9922  -6.9916  -6.9911  -6.9905  -6.9901  -6.9897  -6.9891
    -6.9888  -6.9879  -6.9873  -6.9864  -6.9861  -6.9859  -6.9846  -6.9843
    -6.9837  -6.9828  -6.9825  -6.9822  -6.9819  -6.9814  -6.9808  -6.9803
    -6.9800  -6.9790  -6.9785  -6.9776  -6.9772  -6.9767  -6.9765  -6.9762
    -6.9759  -6.9754  -6.9745  -6.9743  -6.9738  -6.9735  -6.9727  -6.9722
    -6.9721  -6.9719  -6.9713  -6.9708  -6.9703  -6.9702  -6.9699  -6.9695
    -6.9687  -6.9685  -6.9681  -6.9676  -6.9672  -6.9669  -6.9663  -6.9661
    -6.9655  -6.9654  -6.9650  -6.9647  -6.9641  -6.9639  -6.9632  -6.9631
    -6.9627  -6.9619  -6.9618  -6.9616  -6.9608  -6.9604  -6.9598  -6.9596
    -6.9594  -6.9594  -6.9590  -6.9588  -6.9580  -6.9578  -6.9576  -6.9567
    -6.9564  -6.9559  -6.9553  -6.9551  -6.9548  -6.9547  -6.9546  -6.9543
    -6.9539  -6.9535  -6.9532  -6.9528  -6.9525  -6.9524  -6.9522  -6.9519
    -6.9515  -6.9509  -6.9508  -6.9505  -6.9500  -6.9497  -6.9493  -6.9488
    -6.9485  -6.9483  -6.9476  -6.9475  -6.9468  -6.9464  -6.9461  -6.9459
    -6.9458  -6.9454  -6.9451  -6.9448  -6.9445  -6.9441  -6.9438  -6.9433
    -6.9431  -6.9428  -6.9427  -6.9423  -6.9419  -6.9417  -6.9414  -6.9409
    -6.9407  -6.9405  -6.9403  -6.9401  -6.9398  -6.9390  -6.9386  -6.9385
    -6.9380  -6.9380  -6.9376  -6.9374  -6.9368  -6.9365  -6.9363  -6.9362
    -6.9359  -6.9350  -6.9348  -6.9346  -6.9344  -6.9339  -6.9332  -6.9331
    -6.9330  -6.9324  -6.9321  -6.9321  -6.9319  -6.9314  -6.9313  -6.9310
    -6.9309  -6.9305  -6.9299  -6.9295  -6.9291  -6.9285  -6.9282  -6.9280
    -6.9277  -6.9274  -6.9272  -6.9266  -6.9264  -6.9262  -6.9257  -6.9253
    -6.9250  -6.9245  -6.9243  -6.9241  -6.9236  -6.9234  -6.9229  -6.9224
    -6.9223  -6.9220  -6.9218  -6.9213  -6.9209  -6.9207  -6.9204  -6.9197
    -6.9195  -6.9191  -6.9185  -6.9180  -6.9177  -6.9167  -6.9165  -6.9164
    -6.9157  -6.9156  -6.9147  -6.9146  -6.9143  -6.9127  -6.9127  -6.9113
    -6.9112  -6.9108  -6.9104  -6.9101  -6.9097  -6.9093  -6.9083  -6.9077
    -6.9075  -6.9073  -6.9067  -6.9065  -6.9054  -6.9050  -6.9046  -6.9038
    -6.9031  -6.9028  -6.9017  -6.9000  -6.8996  -6.8992  -6.8990  -6.8968
    -6.8961  -6.8951  -6.8892  -6.8876  -6.8875  -6.8856  -6.8847  -6.8845
    -6.8843  -6.8798  -6.8787  -6.8781  -6.8764  -6.8741  -6.8530  -6.8512
    -3.6060  -3.5752  -3.5643  -3.4639  -3.3684  -3.3436  -3.3260  -3.2914
    -3.2789  -3.2251  -3.2134  -3.1600  -3.0900  -3.0593  -3.0433  -3.0137
    -2.9914  -2.9558  -2.9309  -2.9033  -2.8374  -2.8210  -2.8109  -2.8025
    -2.7863  -2.7751  -2.7575  -2.7480  -2.7396  -2.7250  -2.7175  -2.6765
    -2.6627  -2.6289  -2.6093  -2.5838  -2.5397  -2.5159  -2.4978  -2.4753
    -2.4733  -2.4511  -2.4485  -2.4273  -2.4243  -2.3781  -2.3590  -2.3514
    -2.3379  -2.3268  -2.3105  -2.3052  -2.2647  -2.2597  -2.2427  -2.2139
    -2.1887  -2.1842  -2.1790  -2.1567  -2.1424  -2.1251  -2.1062  -2.0930
    -2.0824  -2.0735  -2.0714  -2.0555  -2.0486  -2.0419  -2.0349  -2.0304
    -2.0186  -2.0053  -2.0012  -1.9939  -1.9881  -1.9765  -1.9476  -1.9174
    -1.8820  -1.6380  -1.5495  -1.5058  -1.5008  -1.4477  -1.4027  -1.3812
    -1.3451  -1.3205  -1.2686  -1.2294  -1.2193  -1.1815  -1.1590  -1.1264
    -1.0625  -1.0431  -1.0252  -0.9919  -0.9721  -0.9699  -0.9379  -0.9022
    -0.8597  -0.8383  -0.7860  -0.7270   0.6427   0.6556   0.6670   0.7006
     0.8261   0.8288   0.8324   0.8361   0.8546   0.8564   0.8606   0.8678
     0.9209   0.9287   0.9351   0.9391   0.9450   0.9474   0.9509   0.9570
     0.9609   0.9648   0.9680   0.9746   0.9812   0.9841   0.9921   0.9951
     0.9958   1.0001   1.0121   1.0134   1.0163   1.0190   1.0219   1.0287
     1.0377   1.0413   1.0505   1.0553   1.0568   1.0637   1.0701   1.0738
     1.0818   1.0888   1.0952   1.1025   1.1149   1.1237   1.1311   1.1371
     1.1473   1.1588   1.1635   1.1771   1.1779   1.1820   1.2054   1.2347
     1.6978   1.7182   1.7265   1.7533   1.7666   1.7786   1.7906   1.8019
     1.8142   1.8425   1.8726   1.8865   1.9350   1.9699   1.9734   1.9931
     2.0167   2.0211   2.0336   2.0389   2.0575   2.0673   2.0846   2.0978
     2.1309   2.1368   2.1740   2.1963   2.9092   2.9432   2.9789   2.9812
     3.0163   3.0716   3.0878   3.1130   3.4994   3.5093   3.5166   3.5279
     3.5377   3.5436   3.5519   3.5621   3.5672   3.5890   3.5976   3.6102
     3.6311   3.6381   3.6765   3.6814   3.7413   3.7516   3.7637   3.7696
     3.7785   3.7794   3.7866   3.7945   3.7992   3.8041   3.8095   3.8166
     3.8183   3.8226   3.8379   3.8472   3.8976   3.9113   3.9185   3.9232
     3.9954   4.0123   4.0166   4.0202   4.0335   4.0484   4.0489   4.0593
     4.0646   4.0726   4.0795   4.0874   4.0918   4.0992   4.1083   4.1105
     4.1159   4.1203   4.1310   4.1587   4.4010   4.4177   4.4379   4.4450
     4.4677   4.4837   4.5139   4.5209   4.5707   4.5778   4.5824   4.5918
     4.6018   4.6047   4.6195   4.6252   4.6266   4.6367   4.6396   4.6483
     4.6525   4.6580   4.6593   4.6729   4.6810   4.6901   4.6929   4.6989
     4.7092   4.7162   4.7256   4.7556   4.7890   4.7964   4.8189   4.8298
     4.8804   4.8831   4.8940   4.8986   4.9090   4.9140   4.9309   4.9404
     4.9487   4.9518   4.9643   4.9767   4.9912   5.0039   5.0087   5.0165
     5.0304   5.0419   5.0490   5.0618   5.0664   5.0736   5.0858   5.0931
     5.0966   5.1087   5.1156   5.1259   5.1319   5.1400   5.1454   5.1511
     5.1657   5.1792   5.1870   5.2080   5.2346   5.2391   5.2486   5.2649
     5.2715   5.2744   5.2854   5.2949   5.3107   5.3178   5.3286   5.3378
     5.3414   5.3651   5.3750   5.3910   5.4312   5.4433   5.4449   5.4615
     5.4731   5.4797   5.4837   5.4908   5.5027   5.5130   5.5178   5.5244
     5.5420   5.5484   5.5531   5.5790   5.5869   5.5954   5.6067   5.6134
     5.6408   5.6611   5.6645   5.6861   5.7424   5.7716   5.7821   5.7990
     5.8190   5.8294   5.8446   5.8534   5.9236   5.9388   5.9470   5.9633
     5.9757   5.9785   5.9854   5.9952   6.0066   6.0130   6.0265   6.0398
     6.0569   6.0632   6.0662   6.0894   6.0952   6.1095   6.1266   6.1329
     6.1445   6.1624   6.1866   6.1928   6.2020   6.2131   6.2394   6.2653
     6.2740   6.2859   6.3005   6.3147   6.3276   6.3468   6.3523   6.3765
     6.4009   6.4049   6.4234   6.4308   6.4508   6.4693   6.4870   6.5484
     6.5653   6.5910   6.6397   6.7247   6.9707   7.0324   7.0528   7.0667
     8.7175   8.7334   8.7444   8.7872   8.8813   8.9014   8.9157   8.9221
     8.9306   8.9582   8.9814   8.9990   9.1538   9.1842   9.1918   9.2067
     9.2319   9.2428   9.2971   9.3165   9.4517   9.4565   9.4753   9.5096
     9.5280   9.5344   9.5522   9.5694   9.5731   9.5887   9.5989   9.6113
     9.6258   9.6319   9.6346   9.6521   9.6630   9.6723   9.6793   9.6984
     9.6992   9.7035   9.7111   9.7168   9.7309   9.7414   9.7445   9.7489
     9.7602   9.7711   9.7807   9.7893   9.8095   9.8248   9.8435   9.8463
     9.9124   9.9254   9.9285   9.9452   9.9480   9.9571   9.9607   9.9649
     9.9664   9.9734   9.9813   9.9899   9.9947   9.9964  10.0042  10.0109
    10.0179  10.0228  10.0286  10.0302  10.0418  10.0492  10.0570  10.0642
    10.0738  10.0813  10.0856  10.0927  10.0977  10.1015  10.1059  10.1132
    10.1296  10.1410  10.1429  10.1472  10.1568  10.1719  10.1735  10.1783
    10.1905  10.1999  10.2046  10.2222  10.2238  10.2469  10.2520  10.2644
    10.2747  10.2965  10.3132  10.3256  10.5288  10.5443  10.5566  10.5844
    10.5977  10.6155  10.6255  10.6397  10.6678  10.6718  10.6738  10.7212
    10.8410  10.8845  10.8942  10.9009  10.9032  10.9249  10.9357  10.9553
    10.9577  10.9650  10.9700  10.9958  11.0112  11.0184  11.0463  11.0947
    11.2605  11.2809  11.2898  11.3066  11.3178  11.3345  11.3402  11.3624
    11.3711  11.3798  11.3953  11.4114  11.5270  11.5408  11.5443  11.5540
    11.5621  11.5799  11.5873  11.5906  11.5974  11.6015  11.6138  11.6193
    11.6212  11.6296  11.6330  11.6443  11.6502  11.6609  11.6678  11.6740
    11.6878  11.6967  11.6986  11.7078  11.7122  11.7230  11.7413  11.7441
    11.7555  11.7585  11.7613  11.7662  11.7734  11.7766  11.7944  11.7961
    11.8098  11.8174  11.8284  11.8308  11.8375  11.8499  11.8560  11.8659
    11.8770  11.8840  11.8895  11.8974  11.9068  11.9220  11.9439  11.9549
    11.9605  11.9931  12.0015  12.0123  12.0329  12.0429  12.0682  12.0709
    12.0736  12.0818  12.0873  12.1003  12.1429  12.1623  12.1804  12.1928
    12.2149  12.2250  12.2458  12.2631  12.2871  12.2937  12.2989  12.3037
    12.3089  12.3116  12.3182  12.3237  12.3774  12.3943  12.4251  12.4316
    12.4465  12.4524  12.4678  12.4726  12.4841  12.4847  12.4918  12.4996
    12.5087  12.5140  12.5238  12.5349  12.5448  12.5534  12.5561  12.5697
    12.5815  12.6055  12.6190  12.6255  12.6424  12.6655  12.6827  12.6888
    12.7013  12.7139  12.7388  12.7393  12.7421  12.7529  12.7610  12.7631
    12.7736  12.7774  12.7924  12.7993  12.8054  12.8070  12.8216  12.8368
    12.8688  12.8730  12.8880  12.9002  12.9099  12.9232  12.9268  12.9335
    12.9589  12.9617  12.9716  12.9972  13.0054  13.0190  13.0307  13.0489
    13.0885  13.1069  13.1152  13.1212  13.1263  13.1337  13.1374  13.1495
    13.1513  13.1674  13.1752  13.1829  13.1857  13.1979  13.2029  13.2058
    13.2125  13.2135  13.2186  13.2312  13.2379  13.2387  13.2487  13.2580
    13.2622  13.2659  13.2747  13.2848  13.2861  13.2985  13.3058  13.3062
    13.3099  13.3159  13.3278  13.3376  13.3416  13.3498  13.3600  13.3625
    13.3689  13.3825  13.3928  13.4067  13.4157  13.4169  13.4290  13.4507
    13.4537  13.4611  13.4832  13.4949  13.5023  13.5254  13.5321  13.5434
    13.5534  13.5737  13.6100  13.6230  13.6470  13.6587  13.6953  13.7280
    14.0856  14.1095  14.1142  14.1165  14.1366  14.1388  14.1653  14.1716
    14.1815  14.1919  14.2003  14.2103  14.2147  14.2332  14.2412  14.2479
    14.2509  14.2740  14.2800  14.2887  14.3084  14.3121  14.3166  14.3230
    14.3342  14.3479  14.3565  14.3622  14.3704  14.3954  14.4047  14.4187
    14.4922  14.5232  14.5330  14.5628  14.5738  14.5759  14.5905  14.6073
    14.6155  14.6388  14.6443  14.6623  14.6634  14.6820  14.6932  14.7089
    14.7620  14.7724  14.7788  14.7946  14.8100  14.8181  14.8217  14.8333
    14.8368  14.8574  14.8642  14.8696  14.8838  14.8985  14.9092  14.9174
    14.9450  14.9616  14.9931  15.0111  15.0280  15.0489  15.0616  15.0855
    15.1094  15.1271  15.1538  15.1596  15.1745  15.1827  15.1877  15.2174
    15.2962  15.3044  15.3183  15.3250  15.4335  15.4778  15.4915  15.5090
    15.5185  15.5272  15.5307  15.5389  15.5567  15.5744  15.5850  15.6035
    15.6098  15.6206  15.6276  15.6340  15.6373  15.6481  15.6565  15.6659
    15.6739  15.6847  15.6879  15.7011  15.7042  15.7133  15.7216  15.7235
    15.7246  15.7324  15.7383  15.7485  15.7509  15.7613  15.7634  15.7650
    15.7763  15.7889  15.7931  15.8020  15.8081  15.8136  15.8152  15.8257
    15.8309  15.8445  15.8471  15.8598  15.8668  15.8683  15.8802  15.8924
    15.8987  15.9112  15.9172  15.9216  15.9406  15.9593  15.9702  15.9777
    15.9881  15.9939  15.9998  16.0198  16.0246  16.0345  16.0562  16.0621
    16.0782  16.0971  16.1022  16.1151  16.1311  16.1403  16.1589  16.1745
    16.1794  16.1879  16.1983  16.2111  16.2130  16.2259  16.2397  16.2496
    16.2583  16.2667  16.2692  16.2787  16.2902  16.2929  16.3003  16.3172
    16.3234  16.3299  16.3391  16.3539  16.3589  16.3625  16.3703  16.3845
    16.4060  16.4099  16.4200  16.4389  16.4663  16.4799  16.4967  16.5070
    16.5281  16.5441  16.5533  16.5670  16.5770  16.6060  16.6184  16.6259
    16.6298  16.6428  16.6537  16.6583  16.6640  16.6723  16.6729  16.6935
    16.6983  16.7084  16.7185  16.7394  16.7441  16.7502  16.7568  16.7677
    16.7741  16.7807  16.7878  16.7962  16.8063  16.8173  16.8213  16.8272
    16.8290  16.8361  16.8548  16.8673  17.0351  17.0483  17.0584  17.0656
    17.0941  17.1032  17.1100  17.1292  17.1305  17.1381  17.1490  17.1557
    17.1664  17.1769  17.1830  17.1874  17.1902  17.1981  17.1995  17.2090
    17.2130  17.2230  17.2249  17.2356  17.2492  17.2517  17.2591  17.2694
    17.4808  17.4889  17.5044  17.5136  17.5795  17.5868  17.5990  17.6106
    17.7239  17.7376  17.7498  17.7555  17.7673  17.7738  17.7798  17.7942
    17.8029  17.8240  17.8330  17.8537  17.8712  17.8793  17.8833  17.8994
    17.9033  17.9106  17.9112  17.9194  17.9305  17.9338  17.9356  17.9475
    17.9588  17.9831  17.9868  17.9893  18.0010  18.0035  18.0111  18.0209

     highest occupied, lowest unoccupied level (ev):     7.1585    7.4164

!    total energy              =  -36448.27644454 Ry
     estimated scf accuracy    <       0.00000267 Ry

     The total energy is the sum of the following terms:
     one-electron contribution =  -18589.19196533 Ry
     hartree contribution      =   11045.14080077 Ry
     xc contribution           =   -9410.70583382 Ry
     ewald contribution        =  -19495.71407911 Ry
     Hubbard energy            =       2.19463296 Ry

     convergence has been achieved in  12 iterations

     Writing all to output data dir ./tmp_In1.0Ga0.0As0.75Sb0.25_cube_3x3x3.2/In1.0Ga0.0As0.75Sb0.25_cube_3x3x3.2.save/ :
     XML data file, charge density, pseudopotentials, collected wavefunctions

     init_run     :    263.89s CPU    266.96s WALL (       1 calls)
     electrons    :  10214.43s CPU  10240.65s WALL (       1 calls)

     Called by init_run:
     wfcinit      :    253.40s CPU    256.04s WALL (       1 calls)
     potinit      :      2.29s CPU      2.38s WALL (       1 calls)
     hinit0       :      0.68s CPU      0.72s WALL (       1 calls)

     Called by electrons:
     c_bands      :   9803.08s CPU   9827.33s WALL (      13 calls)
     sum_band     :    404.39s CPU    405.19s WALL (      13 calls)
     v_of_rho     :      4.89s CPU      5.19s WALL (      13 calls)
     mix_rho      :      1.02s CPU      1.03s WALL (      13 calls)

     Called by c_bands:
     init_us_2    :     37.36s CPU     37.99s WALL (      28 calls)
     cegterg      :   9453.43s CPU   9476.31s WALL (      13 calls)

     Called by *egterg:
     cdiaghg      :    832.27s CPU    833.20s WALL (     110 calls)
     h_psi        :   5730.17s CPU   5742.66s WALL (     112 calls)
     g_psi        :      4.70s CPU      4.70s WALL (      98 calls)

     Called by h_psi:
     h_psi:calbec :    894.21s CPU    894.26s WALL (     112 calls)
     vloc_psi     :   1123.06s CPU   1125.56s WALL (     112 calls)
     add_vuspsi   :    877.98s CPU    881.26s WALL (     112 calls)
     vhpsi        :   2825.64s CPU   2825.84s WALL (     112 calls)

     General routines
     calbec       :   1130.23s CPU   1130.30s WALL (     238 calls)
     fft          :      3.25s CPU      3.54s WALL (     131 calls)
     ffts         :      0.24s CPU      0.25s WALL (      13 calls)
     fftw         :   1178.91s CPU   1181.54s WALL (  163152 calls)

     Parallel routines

     Hubbard U routines
     new_ns       :     62.36s CPU     62.37s WALL (      13 calls)
     vhpsi        :   2825.64s CPU   2825.84s WALL (     112 calls)

     PWSCF        :      2h55m CPU      2h57m WALL


   This run was terminated on:   8:48: 4  28Jan2026            

=------------------------------------------------------------------------------=
   JOB DONE.
=------------------------------------------------------------------------------=
