
     Program PWSCF v.7.3.1 starts on 27Jan2026 at 16:23: 7 

     This program is part of the open-source Quantum ESPRESSO suite
     for quantum simulation of materials; please cite
         "P. Giannozzi et al., J. Phys.:Condens. Matter 21 395502 (2009);
         "P. Giannozzi et al., J. Phys.:Condens. Matter 29 465901 (2017);
         "P. Giannozzi et al., J. Chem. Phys. 152 154105 (2020);
          URL http://www.quantum-espresso.org", 
     in publications or presentations arising from this work. More details at
     http://www.quantum-espresso.org/quote

     Parallel version (MPI), running on   640 processors

     MPI processes distributed on     5 nodes
     481405 MiB available memory on the printing compute node when the environment starts

     Reading input from In1.0Ga0.0As0.75Sb0.25_cube_3x3x3.0.scf.in
Warning: card &CELL ignored
Warning: card   CELL_DOFREE = 'ALL', ignored
Warning: card / ignored

     Current dimensions of program PWSCF are:
     Max number of different atomic species (ntypx) = 10
     Max number of k-points (npk) =  40000
     Max angular momentum in pseudopotentials (lmaxx) =  4

     K-points division:     npool     =       8
     R & G space division:  proc/nbgrp/npool/nimage =      80
     Subspace diagonalization in iterative solution of the eigenvalue problem:
     one sub-group per band group will be used
     custom distributed-memory algorithm (size of sub-group:  8*  8 procs)


     Parallelization info
     --------------------
     sticks:   dense  smooth     PW     G-vecs:    dense   smooth      PW
     Min         589     589    151                96177    96177   12531
     Max         590     590    152                96180    96180   12534
     Sum       47129   47129  12109              7694205  7694205 1002617

     Using Slab Decomposition



     bravais-lattice index     =            1
     lattice parameter (alat)  =      35.1216  a.u.
     unit-cell volume          =   43323.3567 (a.u.)^3
     number of atoms/cell      =          216
     number of atomic types    =            4
     number of electrons       =      3024.00
     number of Kohn-Sham states=         2160
     kinetic-energy cutoff     =     120.0000  Ry
     charge density cutoff     =     480.0000  Ry
     scf convergence threshold =      1.0E-05
     mixing beta               =       0.6500
     number of iterations used =            8  plain     mixing
     Exchange-correlation= PBE
                           (   1   4   3   4   0   0   0)
     Hubbard projectors: atomic
     Hubbard parameters of DFT+U (Dudarev formulation) in eV:
     U(As-4p) =  3.2600
     U(Ga-4p) = -3.2650
     U(In-5p) = -0.9725
     U(Sb-5p) =  3.1600

     Internal variables: lda_plus_u =T, lda_plus_u_kind = 0

     celldm(1)=  35.121579  celldm(2)=   0.000000  celldm(3)=   0.000000
     celldm(4)=   0.000000  celldm(5)=   0.000000  celldm(6)=   0.000000

     crystal axes: (cart. coord. in units of alat)
               a(1) = (   1.000000   0.000000   0.000000 )  
               a(2) = (   0.000000   1.000000   0.000000 )  
               a(3) = (   0.000000   0.000000   1.000000 )  

     reciprocal axes: (cart. coord. in units 2 pi/alat)
               b(1) = (  1.000000  0.000000  0.000000 )  
               b(2) = (  0.000000  1.000000  0.000000 )  
               b(3) = (  0.000000  0.000000  1.000000 )  


     PseudoPot. # 1 for As read from file:
     /work/i254/i254/gentles/data/pseudos/As.pbe.NC-SR.standard.v0.5.UPF
     MD5 check sum: bfe1a874457ce592347346129958e7cf
     Pseudo is Norm-conserving + core correction, Zval = 15.0
     Generated using ONCVPSP code by D. R. Hamann
     Using radial grid of 1358 points,  6 beta functions with: 
                l(1) =   0
                l(2) =   0
                l(3) =   1
                l(4) =   1
                l(5) =   2
                l(6) =   2

     PseudoPot. # 2 for Ga read from file:
     /work/i254/i254/gentles/data/pseudos/Ga.pbe.NC-SR.standard.v0.5.UPF
     MD5 check sum: 2bb81bf6f0a8d9832cf3329850435ecf
     Pseudo is Norm-conserving + core correction, Zval = 13.0
     Generated using ONCVPSP code by D. R. Hamann
     Using radial grid of 1902 points,  6 beta functions with: 
                l(1) =   0
                l(2) =   0
                l(3) =   1
                l(4) =   1
                l(5) =   2
                l(6) =   2

     PseudoPot. # 3 for In read from file:
     /work/i254/i254/gentles/data/pseudos/In.pbe.NC-SR.standard.v0.5.UPF
     MD5 check sum: 835f4bf908c982ff75c88e16816a8d7f
     Pseudo is Norm-conserving + core correction, Zval = 13.0
     Generated using ONCVPSP code by D. R. Hamann
     Using radial grid of 1964 points,  6 beta functions with: 
                l(1) =   0
                l(2) =   0
                l(3) =   1
                l(4) =   1
                l(5) =   2
                l(6) =   2

     PseudoPot. # 4 for Sb read from file:
     /work/i254/i254/gentles/data/pseudos/Sb.pbe.NC-SR.standard.v0.5.UPF
     MD5 check sum: 127f69b6101c45666faeae1b5d611565
     Pseudo is Norm-conserving + core correction, Zval = 15.0
     Generated using ONCVPSP code by D. R. Hamann
     Using radial grid of 1434 points,  6 beta functions with: 
                l(1) =   0
                l(2) =   0
                l(3) =   1
                l(4) =   1
                l(5) =   2
                l(6) =   2

     atomic species   valence    mass     pseudopotential
     As               15.00    74.92160     As( 1.00)
     Ga               13.00    69.72300     Ga( 1.00)
     In               13.00   114.81800     In( 1.00)
     Sb               15.00   121.76000     Sb( 1.00)

     No symmetry found



   Cartesian axes

     site n.     atom                  positions (alat units)
         1        In     tau(   1) = (   0.0042980  -0.0014780   0.0048650  )
         2        In     tau(   2) = (   0.0004290   0.1661140   0.1672960  )
         3        In     tau(   3) = (   0.1707680   0.0052230   0.1654010  )
         4        In     tau(   4) = (   0.1683770   0.1660960   0.0059290  )
         5        As     tau(   5) = (   0.0843760   0.0844210   0.0858780  )
         6        As     tau(   6) = (   0.0820240   0.2485820   0.2504640  )
         7        As     tau(   7) = (   0.2516430   0.0857060   0.2498960  )
         8        As     tau(   8) = (   0.2506380   0.2502830   0.0860180  )
         9        In     tau(   9) = (  -0.0042550   0.0041370   0.3350760  )
        10        In     tau(  10) = (  -0.0040710   0.1635560   0.4963590  )
        11        In     tau(  11) = (   0.1635840   0.0016750   0.4975760  )
        12        In     tau(  12) = (   0.1654260   0.1656120   0.3314920  )
        13        As     tau(  13) = (   0.0816250   0.0844250   0.4150750  )
        14        Sb     tau(  14) = (   0.0817870   0.2506790   0.5820130  )
        15        As     tau(  15) = (   0.2494930   0.0850590   0.5777690  )
        16        As     tau(  16) = (   0.2502530   0.2478480   0.4115150  )
        17        In     tau(  17) = (  -0.0039240  -0.0044320   0.6604090  )
        18        In     tau(  18) = (  -0.0050660   0.1739840   0.8288010  )
        19        In     tau(  19) = (   0.1643900   0.0008630   0.8448330  )
        20        In     tau(  20) = (   0.1737160   0.1668390   0.6661180  )
        21        Sb     tau(  21) = (   0.0819210   0.0820930   0.7490480  )
        22        Sb     tau(  22) = (   0.0841190   0.2544730   0.9180190  )
        23        As     tau(  23) = (   0.2491160   0.0848370   0.9230670  )
        24        As     tau(  24) = (   0.2508850   0.2499870   0.7524640  )
        25        In     tau(  25) = (  -0.0048360   0.3378950   0.0051480  )
        26        In     tau(  26) = (  -0.0006430   0.4995640   0.1667080  )
        27        In     tau(  27) = (   0.1648440   0.3299140   0.1675570  )
        28        In     tau(  28) = (   0.1671210   0.4941920   0.0041330  )
        29        As     tau(  29) = (   0.0822560   0.4151550   0.0873640  )
        30        As     tau(  30) = (   0.0839500   0.5823700   0.2465050  )
        31        As     tau(  31) = (   0.2485680   0.4125590   0.2478310  )
        32        As     tau(  32) = (   0.2479270   0.5806390   0.0831810  )
        33        In     tau(  33) = (  -0.0013060   0.3316330   0.3325910  )
        34        In     tau(  34) = (   0.0031080   0.4948320   0.5039320  )
        35        In     tau(  35) = (   0.1660190   0.3324110   0.4888710  )
        36        In     tau(  36) = (   0.1620360   0.4945110   0.3264580  )
        37        As     tau(  37) = (   0.0807190   0.4153790   0.4126610  )
        38        As     tau(  38) = (   0.0799970   0.5827950   0.5862820  )
        39        Sb     tau(  39) = (   0.2475720   0.4159890   0.5827050  )
        40        Sb     tau(  40) = (   0.2460160   0.5820250   0.4144480  )
        41        In     tau(  41) = (  -0.0045640   0.3369260   0.6695830  )
        42        In     tau(  42) = (  -0.0049120   0.4960140   0.8307630  )
        43        In     tau(  43) = (   0.1700970   0.3396150   0.8297270  )
        44        In     tau(  44) = (   0.1617510   0.5039280   0.6708090  )
        45        As     tau(  45) = (   0.0811160   0.4177030   0.7498590  )
        46        Sb     tau(  46) = (   0.0819450   0.5820050   0.9170460  )
        47        As     tau(  47) = (   0.2512130   0.4167900   0.9185650  )
        48        As     tau(  48) = (   0.2459900   0.5849000   0.7525540  )
        49        In     tau(  49) = (  -0.0027280   0.6698420   0.0034500  )
        50        In     tau(  50) = (  -0.0000140   0.8337000   0.1603780  )
        51        In     tau(  51) = (   0.1661570   0.6660460   0.1649600  )
        52        In     tau(  52) = (   0.1674920   0.8322520   0.0020000  )
        53        As     tau(  53) = (   0.0840340   0.7497220   0.0827830  )
        54        Sb     tau(  54) = (   0.0838990   0.9181980   0.2505260  )
        55        As     tau(  55) = (   0.2464500   0.7522660   0.2474210  )
        56        As     tau(  56) = (   0.2484240   0.9189230   0.0835650  )
        57        In     tau(  57) = (   0.0086700   0.6660620   0.3336160  )
        58        In     tau(  58) = (  -0.0029660   0.8335090   0.4973160  )
        59        In     tau(  59) = (   0.1601870   0.6669570   0.5045870  )
        60        In     tau(  60) = (   0.1686530   0.8308280   0.3377200  )
        61        As     tau(  61) = (   0.0836420   0.7506050   0.4192180  )
        62        As     tau(  62) = (   0.0803370   0.9163100   0.5777660  )
        63        As     tau(  63) = (   0.2429690   0.7496740   0.5840190  )
        64        As     tau(  64) = (   0.2479190   0.9196340   0.4162360  )
        65        In     tau(  65) = (  -0.0029870   0.6650280   0.6674750  )
        66        In     tau(  66) = (   0.0012220   0.8335640   0.8343220  )
        67        In     tau(  67) = (   0.1659970   0.6719400   0.8306910  )
        68        In     tau(  68) = (   0.1575110   0.8316360   0.6628870  )
        69        As     tau(  69) = (   0.0791500   0.7499360   0.7486090  )
        70        As     tau(  70) = (   0.0828310   0.9137540   0.9216310  )
        71        As     tau(  71) = (   0.2478860   0.7482110   0.9189880  )
        72        Sb     tau(  72) = (   0.2450470   0.9160050   0.7511340  )
        73        In     tau(  73) = (   0.3318230   0.0045820   0.0064630  )
        74        In     tau(  74) = (   0.3346790   0.1692480   0.1687760  )
        75        In     tau(  75) = (   0.4984310   0.0025480   0.1673690  )
        76        In     tau(  76) = (   0.4991020   0.1658740   0.0020860  )
        77        As     tau(  77) = (   0.4162970   0.0860500   0.0865310  )
        78        As     tau(  78) = (   0.4185090   0.2509140   0.2491530  )
        79        As     tau(  79) = (   0.5826360   0.0847040   0.2500380  )
        80        As     tau(  80) = (   0.5823140   0.2482370   0.0836050  )
        81        In     tau(  81) = (   0.3324170   0.0015830   0.3327990  )
        82        In     tau(  82) = (   0.3332760   0.1666770   0.4954210  )
        83        In     tau(  83) = (   0.5005970   0.0007030   0.4877900  )
        84        In     tau(  84) = (   0.5006540   0.1683320   0.3317540  )
        85        As     tau(  85) = (   0.4160200   0.0857250   0.4117220  )
        86        As     tau(  86) = (   0.4150100   0.2507540   0.5773720  )
        87        Sb     tau(  87) = (   0.5853710   0.0843210   0.5793820  )
        88        As     tau(  88) = (   0.5841720   0.2504800   0.4147730  )
        89        In     tau(  89) = (   0.3289440   0.0045190   0.6633110  )
        90        In     tau(  90) = (   0.3291270   0.1707430   0.8414630  )
        91        In     tau(  91) = (   0.5088760   0.0015750   0.8337810  )
        92        In     tau(  92) = (   0.4970340   0.1729420   0.6609430  )
        93        Sb     tau(  93) = (   0.4159010   0.0873340   0.7521490  )
        94        As     tau(  94) = (   0.4157440   0.2494090   0.9225520  )
        95        As     tau(  95) = (   0.5853550   0.0852870   0.9203170  )
        96        Sb     tau(  96) = (   0.5868600   0.2512910   0.7522800  )
        97        In     tau(  97) = (   0.3326580   0.3324160   0.0016700  )
        98        In     tau(  98) = (   0.3291340   0.4942500   0.1620850  )
        99        In     tau(  99) = (   0.5003470   0.3320840   0.1653370  )
       100        In     tau( 100) = (   0.4985730   0.4983830   0.0028150  )
       101        As     tau( 101) = (   0.4162260   0.4137910   0.0830400  )
       102        Sb     tau( 102) = (   0.4181230   0.5789920   0.2472070  )
       103        As     tau( 103) = (   0.5836980   0.4127500   0.2487580  )
       104        As     tau( 104) = (   0.5839820   0.5816790   0.0816190  )
       105        In     tau( 105) = (   0.3330100   0.3307390   0.3301210  )
       106        In     tau( 106) = (   0.3389160   0.4945230   0.4937520  )
       107        In     tau( 107) = (   0.5024990   0.3321080   0.4991900  )
       108        In     tau( 108) = (   0.5008410   0.4898080   0.3338210  )
       109        As     tau( 109) = (   0.4179700   0.4089520   0.4143060  )
       110        Sb     tau( 110) = (   0.4186670   0.5819140   0.5844110  )
       111        As     tau( 111) = (   0.5875840   0.4146560   0.5814730  )
       112        Sb     tau( 112) = (   0.5873280   0.5823540   0.4155140  )
       113        In     tau( 113) = (   0.3336430   0.3259570   0.6659350  )
       114        In     tau( 114) = (   0.3292040   0.5043270   0.8372240  )
       115        In     tau( 115) = (   0.5001020   0.3332520   0.8440530  )
       116        In     tau( 116) = (   0.5108920   0.4981540   0.6683050  )
       117        Sb     tau( 117) = (   0.4168060   0.4163140   0.7522390  )
       118        As     tau( 118) = (   0.4162430   0.5807080   0.9195620  )
       119        As     tau( 119) = (   0.5839320   0.4186630   0.9198880  )
       120        As     tau( 120) = (   0.5886220   0.5820000   0.7526420  )
       121        In     tau( 121) = (   0.3296920   0.6618230  -0.0015250  )
       122        In     tau( 122) = (   0.3289940   0.8393570   0.1697050  )
       123        In     tau( 123) = (   0.5091280   0.6668120   0.1665100  )
       124        In     tau( 124) = (   0.5100490   0.8328740   0.0016720  )
       125        Sb     tau( 125) = (   0.4160660   0.7505810   0.0846630  )
       126        As     tau( 126) = (   0.4152100   0.9205880   0.2492260  )
       127        As     tau( 127) = (   0.5871970   0.7528450   0.2492310  )
       128        As     tau( 128) = (   0.5841120   0.9201740   0.0873400  )
       129        In     tau( 129) = (   0.3295230   0.6695200   0.3262000  )
       130        In     tau( 130) = (   0.3229670   0.8335810   0.5007230  )
       131        In     tau( 131) = (   0.5046170   0.6719530   0.5032830  )
       132        In     tau( 132) = (   0.5028620   0.8386400   0.3264480  )
       133        Sb     tau( 133) = (   0.4158420   0.7539880   0.4143370  )
       134        Sb     tau( 134) = (   0.4174560   0.9172470   0.5805910  )
       135        As     tau( 135) = (   0.5886030   0.7506810   0.5852840  )
       136        As     tau( 136) = (   0.5857810   0.9178350   0.4101810  )
       137        In     tau( 137) = (   0.3241210   0.6654320   0.6657220  )
       138        In     tau( 138) = (   0.3313650   0.8296770   0.8386420  )
       139        In     tau( 139) = (   0.5024050   0.6590590   0.8374820  )
       140        In     tau( 140) = (   0.5080660   0.8346800   0.6669800  )
       141        Sb     tau( 141) = (   0.4182010   0.7465950   0.7500220  )
       142        Sb     tau( 142) = (   0.4194650   0.9190760   0.9200940  )
       143        As     tau( 143) = (   0.5841760   0.7453870   0.9159010  )
       144        As     tau( 144) = (   0.5873530   0.9156530   0.7523680  )
       145        In     tau( 145) = (   0.6648590   0.0051570   0.0065810  )
       146        In     tau( 146) = (   0.6655130   0.1679370   0.1685130  )
       147        In     tau( 147) = (   0.8341360   0.0013600   0.1673190  )
       148        In     tau( 148) = (   0.8296100   0.1710610   0.0064340  )
       149        As     tau( 149) = (   0.7494200   0.0858230   0.0880370  )
       150        As     tau( 150) = (   0.7490930   0.2497050   0.2507510  )
       151        As     tau( 151) = (   0.9157800   0.0852530   0.2492720  )
       152        As     tau( 152) = (   0.9172710   0.2497710   0.0866730  )
       153        In     tau( 153) = (   0.6681510   0.0040770   0.3318570  )
       154        In     tau( 154) = (   0.6727110   0.1720910   0.4947370  )
       155        In     tau( 155) = (   0.8343470   0.0049700   0.4965540  )
       156        In     tau( 156) = (   0.8328610   0.1678300   0.3307630  )
       157        As     tau( 157) = (   0.7518140   0.0860810   0.4134260  )
       158        As     tau( 158) = (   0.7537420   0.2521630   0.5804020  )
       159        As     tau( 159) = (   0.9148440   0.0838510   0.5821100  )
       160        As     tau( 160) = (   0.9159950   0.2487680   0.4141880  )
       161        In     tau( 161) = (   0.6682600   0.0008460   0.6730630  )
       162        In     tau( 162) = (   0.6729260   0.1626010   0.8383220  )
       163        In     tau( 163) = (   0.8351220  -0.0009210   0.8251830  )
       164        In     tau( 164) = (   0.8328500   0.1682290   0.6640920  )
       165        As     tau( 165) = (   0.7528810   0.0853300   0.7491130  )
       166        As     tau( 166) = (   0.7497150   0.2504620   0.9189940  )
       167        Sb     tau( 167) = (   0.9157920   0.0844080   0.9185580  )
       168        As     tau( 168) = (   0.9110020   0.2536850   0.7483320  )
       169        In     tau( 169) = (   0.6625400   0.3300730  -0.0014780  )
       170        In     tau( 170) = (   0.6620260   0.5011530   0.1692120  )
       171        In     tau( 171) = (   0.8366600   0.3293840   0.1715600  )
       172        In     tau( 172) = (   0.8364870   0.5029000  -0.0041480  )
       173        Sb     tau( 173) = (   0.7510940   0.4158980   0.0838840  )
       174        As     tau( 174) = (   0.7482060   0.5794430   0.2504220  )
       175        As     tau( 175) = (   0.9176620   0.4154150   0.2500980  )
       176        As     tau( 176) = (   0.9180060   0.5812970   0.0824170  )
       177        In     tau( 177) = (   0.6669130   0.3324720   0.3326430  )
       178        In     tau( 178) = (   0.6736720   0.4958660   0.5018500  )
       179        In     tau( 179) = (   0.8370420   0.3328670   0.4982850  )
       180        In     tau( 180) = (   0.8299990   0.4942560   0.3304970  )
       181        As     tau( 181) = (   0.7514200   0.4123950   0.4161780  )
       182        As     tau( 182) = (   0.7510250   0.5828010   0.5846220  )
       183        As     tau( 183) = (   0.9153760   0.4170290   0.5842420  )
       184        Sb     tau( 184) = (   0.9166190   0.5817210   0.4173570  )
       185        In     tau( 185) = (   0.6733450   0.3361530   0.6635000  )
       186        In     tau( 186) = (   0.6692900   0.4973890   0.8337800  )
       187        In     tau( 187) = (   0.8304810   0.3333130   0.8347700  )
       188        In     tau( 188) = (   0.8340780   0.5015840   0.6669430  )
       189        As     tau( 189) = (   0.7524430   0.4177070   0.7496240  )
       190        As     tau( 190) = (   0.7514880   0.5820840   0.9145200  )
       191        As     tau( 191) = (   0.9144880   0.4155000   0.9159970  )
       192        As     tau( 192) = (   0.9151160   0.5829600   0.7504790  )
       193        In     tau( 193) = (   0.6658430   0.6613090  -0.0041560  )
       194        In     tau( 194) = (   0.6669290   0.8395810   0.1701840  )
       195        In     tau( 195) = (   0.8328390   0.6557450   0.1673280  )
       196        In     tau( 196) = (   0.8409060   0.8344830  -0.0010020  )
       197        Sb     tau( 197) = (   0.7506150   0.7489430   0.0834830  )
       198        As     tau( 198) = (   0.7510120   0.9210180   0.2512770  )
       199        Sb     tau( 199) = (   0.9158650   0.7491060   0.2506360  )
       200        As     tau( 200) = (   0.9173280   0.9191460   0.0837430  )
       201        In     tau( 201) = (   0.6729550   0.6709810   0.3292650  )
       202        In     tau( 202) = (   0.6630790   0.8318890   0.4951960  )
       203        In     tau( 203) = (   0.8300620   0.6702230   0.5032570  )
       204        In     tau( 204) = (   0.8305650   0.8389880   0.3368400  )
       205        As     tau( 205) = (   0.7503010   0.7521660   0.4166530  )
       206        Sb     tau( 206) = (   0.7515770   0.9153190   0.5832230  )
       207        As     tau( 207) = (   0.9178160   0.7491950   0.5832730  )
       208        As     tau( 208) = (   0.9156050   0.9197240   0.4171050  )
       209        In     tau( 209) = (   0.6693290   0.6648110   0.6676580  )
       210        In     tau( 210) = (   0.6653060   0.8259430   0.8310140  )
       211        In     tau( 211) = (   0.8338770   0.6660800   0.8342190  )
       212        In     tau( 212) = (   0.8377590   0.8278490   0.6699800  )
       213        As     tau( 213) = (   0.7520260   0.7466990   0.7501100  )
       214        Sb     tau( 214) = (   0.7481320   0.9174100   0.9160740  )
       215        As     tau( 215) = (   0.9182890   0.7498830   0.9156200  )
       216        As     tau( 216) = (   0.9190990   0.9137160   0.7486550  )

     number of k points=     8
                       cart. coord. in units 2pi/alat
        k(    1) = (   0.0000000   0.0000000   0.0000000), wk =   0.2500000
        k(    2) = (   0.0000000   0.0000000  -0.5000000), wk =   0.2500000
        k(    3) = (   0.0000000  -0.5000000  -0.5000000), wk =   0.2500000
        k(    4) = (  -0.5000000  -0.5000000  -0.5000000), wk =   0.2500000
        k(    5) = (  -0.5000000   0.0000000   0.0000000), wk =   0.2500000
        k(    6) = (   0.0000000  -0.5000000   0.0000000), wk =   0.2500000
        k(    7) = (  -0.5000000   0.0000000   0.5000000), wk =   0.2500000
        k(    8) = (  -0.5000000   0.5000000   0.0000000), wk =   0.2500000

     Dense  grid:  7694205 G-vectors     FFT dimensions: ( 250, 250, 250)

     Estimated max dynamical RAM per process >       2.96 GB

     Estimated total dynamical RAM >    1879.35 GB

     Initial potential from superposition of free atoms

     starting charge    3023.5448, renormalised to    3024.0000

     STARTING HUBBARD OCCUPATIONS:

     =================== HUBBARD OCCUPATIONS ===================
     ------------------------ ATOM    1 ------------------------
     Tr[ns(  1)] =   1.00000
     eigenvalues:
       0.167  0.167  0.167
     eigenvectors (columns):
       1.000  0.000  0.000
       0.000  1.000  0.000
       0.000  0.000  1.000
     occupation matrix ns (before diag.):
       0.167  0.000  0.000
       0.000  0.167  0.000
       0.000  0.000  0.167
     ------------------------ ATOM    2 ------------------------
     Tr[ns(  2)] =   1.00000
     eigenvalues:
       0.167  0.167  0.167
     eigenvectors (columns):
       1.000  0.000  0.000
       0.000  1.000  0.000
       0.000  0.000  1.000
     occupation matrix ns (before diag.):
       0.167  0.000  0.000
       0.000  0.167  0.000
       0.000  0.000  0.167
     ------------------------ ATOM    3 ------------------------
     Tr[ns(  3)] =   1.00000
     eigenvalues:
       0.167  0.167  0.167
     eigenvectors (columns):
       1.000  0.000  0.000
       0.000  1.000  0.000
       0.000  0.000  1.000
     occupation matrix ns (before diag.):
       0.167  0.000  0.000
       0.000  0.167  0.000
       0.000  0.000  0.167
     ------------------------ ATOM    4 ------------------------
     Tr[ns(  4)] =   1.00000
     eigenvalues:
       0.167  0.167  0.167
     eigenvectors (columns):
       1.000  0.000  0.000
       0.000  1.000  0.000
       0.000  0.000  1.000
     occupation matrix ns (before diag.):
       0.167  0.000  0.000
       0.000  0.167  0.000
       0.000  0.000  0.167
     ------------------------ ATOM    5 ------------------------
     Tr[ns(  5)] =   3.00000
     eigenvalues:
       0.500  0.500  0.500
     eigenvectors (columns):
       1.000  0.000  0.000
       0.000  1.000  0.000
       0.000  0.000  1.000
     occupation matrix ns (before diag.):
       0.500  0.000  0.000
       0.000  0.500  0.000
       0.000  0.000  0.500
     ------------------------ ATOM    6 ------------------------
     Tr[ns(  6)] =   3.00000
     eigenvalues:
       0.500  0.500  0.500
     eigenvectors (columns):
       1.000  0.000  0.000
       0.000  1.000  0.000
       0.000  0.000  1.000
     occupation matrix ns (before diag.):
       0.500  0.000  0.000
       0.000  0.500  0.000
       0.000  0.000  0.500
     ------------------------ ATOM    7 ------------------------
     Tr[ns(  7)] =   3.00000
     eigenvalues:
       0.500  0.500  0.500
     eigenvectors (columns):
       1.000  0.000  0.000
       0.000  1.000  0.000
       0.000  0.000  1.000
     occupation matrix ns (before diag.):
       0.500  0.000  0.000
       0.000  0.500  0.000
       0.000  0.000  0.500
     ------------------------ ATOM    8 ------------------------
     Tr[ns(  8)] =   3.00000
     eigenvalues:
       0.500  0.500  0.500
     eigenvectors (columns):
       1.000  0.000  0.000
       0.000  1.000  0.000
       0.000  0.000  1.000
     occupation matrix ns (before diag.):
       0.500  0.000  0.000
       0.000  0.500  0.000
       0.000  0.000  0.500
     ------------------------ ATOM    9 ------------------------
     Tr[ns(  9)] =   1.00000
     eigenvalues:
       0.167  0.167  0.167
     eigenvectors (columns):
       1.000  0.000  0.000
       0.000  1.000  0.000
       0.000  0.000  1.000
     occupation matrix ns (before diag.):
       0.167  0.000  0.000
       0.000  0.167  0.000
       0.000  0.000  0.167
     ------------------------ ATOM   10 ------------------------
     Tr[ns( 10)] =   1.00000
     eigenvalues:
       0.167  0.167  0.167
     eigenvectors (columns):
       1.000  0.000  0.000
       0.000  1.000  0.000
       0.000  0.000  1.000
     occupation matrix ns (before diag.):
       0.167  0.000  0.000
       0.000  0.167  0.000
       0.000  0.000  0.167
     ------------------------ ATOM   11 ------------------------
     Tr[ns( 11)] =   1.00000
     eigenvalues:
       0.167  0.167  0.167
     eigenvectors (columns):
       1.000  0.000  0.000
       0.000  1.000  0.000
       0.000  0.000  1.000
     occupation matrix ns (before diag.):
       0.167  0.000  0.000
       0.000  0.167  0.000
       0.000  0.000  0.167
     ------------------------ ATOM   12 ------------------------
     Tr[ns( 12)] =   1.00000
     eigenvalues:
       0.167  0.167  0.167
     eigenvectors (columns):
       1.000  0.000  0.000
       0.000  1.000  0.000
       0.000  0.000  1.000
     occupation matrix ns (before diag.):
       0.167  0.000  0.000
       0.000  0.167  0.000
       0.000  0.000  0.167
     ------------------------ ATOM   13 ------------------------
     Tr[ns( 13)] =   3.00000
     eigenvalues:
       0.500  0.500  0.500
     eigenvectors (columns):
       1.000  0.000  0.000
       0.000  1.000  0.000
       0.000  0.000  1.000
     occupation matrix ns (before diag.):
       0.500  0.000  0.000
       0.000  0.500  0.000
       0.000  0.000  0.500
     ------------------------ ATOM   14 ------------------------
     Tr[ns( 14)] =   3.00000
     eigenvalues:
       0.500  0.500  0.500
     eigenvectors (columns):
       1.000  0.000  0.000
       0.000  1.000  0.000
       0.000  0.000  1.000
     occupation matrix ns (before diag.):
       0.500  0.000  0.000
       0.000  0.500  0.000
       0.000  0.000  0.500
     ------------------------ ATOM   15 ------------------------
     Tr[ns( 15)] =   3.00000
     eigenvalues:
       0.500  0.500  0.500
     eigenvectors (columns):
       1.000  0.000  0.000
       0.000  1.000  0.000
       0.000  0.000  1.000
     occupation matrix ns (before diag.):
       0.500  0.000  0.000
       0.000  0.500  0.000
       0.000  0.000  0.500
     ------------------------ ATOM   16 ------------------------
     Tr[ns( 16)] =   3.00000
     eigenvalues:
       0.500  0.500  0.500
     eigenvectors (columns):
       1.000  0.000  0.000
       0.000  1.000  0.000
       0.000  0.000  1.000
     occupation matrix ns (before diag.):
       0.500  0.000  0.000
       0.000  0.500  0.000
       0.000  0.000  0.500
     ------------------------ ATOM   17 ------------------------
     Tr[ns( 17)] =   1.00000
     eigenvalues:
       0.167  0.167  0.167
     eigenvectors (columns):
       1.000  0.000  0.000
       0.000  1.000  0.000
       0.000  0.000  1.000
     occupation matrix ns (before diag.):
       0.167  0.000  0.000
       0.000  0.167  0.000
       0.000  0.000  0.167
     ------------------------ ATOM   18 ------------------------
     Tr[ns( 18)] =   1.00000
     eigenvalues:
       0.167  0.167  0.167
     eigenvectors (columns):
       1.000  0.000  0.000
       0.000  1.000  0.000
       0.000  0.000  1.000
     occupation matrix ns (before diag.):
       0.167  0.000  0.000
       0.000  0.167  0.000
       0.000  0.000  0.167
     ------------------------ ATOM   19 ------------------------
     Tr[ns( 19)] =   1.00000
     eigenvalues:
       0.167  0.167  0.167
     eigenvectors (columns):
       1.000  0.000  0.000
       0.000  1.000  0.000
       0.000  0.000  1.000
     occupation matrix ns (before diag.):
       0.167  0.000  0.000
       0.000  0.167  0.000
       0.000  0.000  0.167
     ------------------------ ATOM   20 ------------------------
     Tr[ns( 20)] =   1.00000
     eigenvalues:
       0.167  0.167  0.167
     eigenvectors (columns):
       1.000  0.000  0.000
       0.000  1.000  0.000
       0.000  0.000  1.000
     occupation matrix ns (before diag.):
       0.167  0.000  0.000
       0.000  0.167  0.000
       0.000  0.000  0.167
     ------------------------ ATOM   21 ------------------------
     Tr[ns( 21)] =   3.00000
     eigenvalues:
       0.500  0.500  0.500
     eigenvectors (columns):
       1.000  0.000  0.000
       0.000  1.000  0.000
       0.000  0.000  1.000
     occupation matrix ns (before diag.):
       0.500  0.000  0.000
       0.000  0.500  0.000
       0.000  0.000  0.500
     ------------------------ ATOM   22 ------------------------
     Tr[ns( 22)] =   3.00000
     eigenvalues:
       0.500  0.500  0.500
     eigenvectors (columns):
       1.000  0.000  0.000
       0.000  1.000  0.000
       0.000  0.000  1.000
     occupation matrix ns (before diag.):
       0.500  0.000  0.000
       0.000  0.500  0.000
       0.000  0.000  0.500
     ------------------------ ATOM   23 ------------------------
     Tr[ns( 23)] =   3.00000
     eigenvalues:
       0.500  0.500  0.500
     eigenvectors (columns):
       1.000  0.000  0.000
       0.000  1.000  0.000
       0.000  0.000  1.000
     occupation matrix ns (before diag.):
       0.500  0.000  0.000
       0.000  0.500  0.000
       0.000  0.000  0.500
     ------------------------ ATOM   24 ------------------------
     Tr[ns( 24)] =   3.00000
     eigenvalues:
       0.500  0.500  0.500
     eigenvectors (columns):
       1.000  0.000  0.000
       0.000  1.000  0.000
       0.000  0.000  1.000
     occupation matrix ns (before diag.):
       0.500  0.000  0.000
       0.000  0.500  0.000
       0.000  0.000  0.500
     ------------------------ ATOM   25 ------------------------
     Tr[ns( 25)] =   1.00000
     eigenvalues:
       0.167  0.167  0.167
     eigenvectors (columns):
       1.000  0.000  0.000
       0.000  1.000  0.000
       0.000  0.000  1.000
     occupation matrix ns (before diag.):
       0.167  0.000  0.000
       0.000  0.167  0.000
       0.000  0.000  0.167
     ------------------------ ATOM   26 ------------------------
     Tr[ns( 26)] =   1.00000
     eigenvalues:
       0.167  0.167  0.167
     eigenvectors (columns):
       1.000  0.000  0.000
       0.000  1.000  0.000
       0.000  0.000  1.000
     occupation matrix ns (before diag.):
       0.167  0.000  0.000
       0.000  0.167  0.000
       0.000  0.000  0.167
     ------------------------ ATOM   27 ------------------------
     Tr[ns( 27)] =   1.00000
     eigenvalues:
       0.167  0.167  0.167
     eigenvectors (columns):
       1.000  0.000  0.000
       0.000  1.000  0.000
       0.000  0.000  1.000
     occupation matrix ns (before diag.):
       0.167  0.000  0.000
       0.000  0.167  0.000
       0.000  0.000  0.167
     ------------------------ ATOM   28 ------------------------
     Tr[ns( 28)] =   1.00000
     eigenvalues:
       0.167  0.167  0.167
     eigenvectors (columns):
       1.000  0.000  0.000
       0.000  1.000  0.000
       0.000  0.000  1.000
     occupation matrix ns (before diag.):
       0.167  0.000  0.000
       0.000  0.167  0.000
       0.000  0.000  0.167
     ------------------------ ATOM   29 ------------------------
     Tr[ns( 29)] =   3.00000
     eigenvalues:
       0.500  0.500  0.500
     eigenvectors (columns):
       1.000  0.000  0.000
       0.000  1.000  0.000
       0.000  0.000  1.000
     occupation matrix ns (before diag.):
       0.500  0.000  0.000
       0.000  0.500  0.000
       0.000  0.000  0.500
     ------------------------ ATOM   30 ------------------------
     Tr[ns( 30)] =   3.00000
     eigenvalues:
       0.500  0.500  0.500
     eigenvectors (columns):
       1.000  0.000  0.000
       0.000  1.000  0.000
       0.000  0.000  1.000
     occupation matrix ns (before diag.):
       0.500  0.000  0.000
       0.000  0.500  0.000
       0.000  0.000  0.500
     ------------------------ ATOM   31 ------------------------
     Tr[ns( 31)] =   3.00000
     eigenvalues:
       0.500  0.500  0.500
     eigenvectors (columns):
       1.000  0.000  0.000
       0.000  1.000  0.000
       0.000  0.000  1.000
     occupation matrix ns (before diag.):
       0.500  0.000  0.000
       0.000  0.500  0.000
       0.000  0.000  0.500
     ------------------------ ATOM   32 ------------------------
     Tr[ns( 32)] =   3.00000
     eigenvalues:
       0.500  0.500  0.500
     eigenvectors (columns):
       1.000  0.000  0.000
       0.000  1.000  0.000
       0.000  0.000  1.000
     occupation matrix ns (before diag.):
       0.500  0.000  0.000
       0.000  0.500  0.000
       0.000  0.000  0.500
     ------------------------ ATOM   33 ------------------------
     Tr[ns( 33)] =   1.00000
     eigenvalues:
       0.167  0.167  0.167
     eigenvectors (columns):
       1.000  0.000  0.000
       0.000  1.000  0.000
       0.000  0.000  1.000
     occupation matrix ns (before diag.):
       0.167  0.000  0.000
       0.000  0.167  0.000
       0.000  0.000  0.167
     ------------------------ ATOM   34 ------------------------
     Tr[ns( 34)] =   1.00000
     eigenvalues:
       0.167  0.167  0.167
     eigenvectors (columns):
       1.000  0.000  0.000
       0.000  1.000  0.000
       0.000  0.000  1.000
     occupation matrix ns (before diag.):
       0.167  0.000  0.000
       0.000  0.167  0.000
       0.000  0.000  0.167
     ------------------------ ATOM   35 ------------------------
     Tr[ns( 35)] =   1.00000
     eigenvalues:
       0.167  0.167  0.167
     eigenvectors (columns):
       1.000  0.000  0.000
       0.000  1.000  0.000
       0.000  0.000  1.000
     occupation matrix ns (before diag.):
       0.167  0.000  0.000
       0.000  0.167  0.000
       0.000  0.000  0.167
     ------------------------ ATOM   36 ------------------------
     Tr[ns( 36)] =   1.00000
     eigenvalues:
       0.167  0.167  0.167
     eigenvectors (columns):
       1.000  0.000  0.000
       0.000  1.000  0.000
       0.000  0.000  1.000
     occupation matrix ns (before diag.):
       0.167  0.000  0.000
       0.000  0.167  0.000
       0.000  0.000  0.167
     ------------------------ ATOM   37 ------------------------
     Tr[ns( 37)] =   3.00000
     eigenvalues:
       0.500  0.500  0.500
     eigenvectors (columns):
       1.000  0.000  0.000
       0.000  1.000  0.000
       0.000  0.000  1.000
     occupation matrix ns (before diag.):
       0.500  0.000  0.000
       0.000  0.500  0.000
       0.000  0.000  0.500
     ------------------------ ATOM   38 ------------------------
     Tr[ns( 38)] =   3.00000
     eigenvalues:
       0.500  0.500  0.500
     eigenvectors (columns):
       1.000  0.000  0.000
       0.000  1.000  0.000
       0.000  0.000  1.000
     occupation matrix ns (before diag.):
       0.500  0.000  0.000
       0.000  0.500  0.000
       0.000  0.000  0.500
     ------------------------ ATOM   39 ------------------------
     Tr[ns( 39)] =   3.00000
     eigenvalues:
       0.500  0.500  0.500
     eigenvectors (columns):
       1.000  0.000  0.000
       0.000  1.000  0.000
       0.000  0.000  1.000
     occupation matrix ns (before diag.):
       0.500  0.000  0.000
       0.000  0.500  0.000
       0.000  0.000  0.500
     ------------------------ ATOM   40 ------------------------
     Tr[ns( 40)] =   3.00000
     eigenvalues:
       0.500  0.500  0.500
     eigenvectors (columns):
       1.000  0.000  0.000
       0.000  1.000  0.000
       0.000  0.000  1.000
     occupation matrix ns (before diag.):
       0.500  0.000  0.000
       0.000  0.500  0.000
       0.000  0.000  0.500
     ------------------------ ATOM   41 ------------------------
     Tr[ns( 41)] =   1.00000
     eigenvalues:
       0.167  0.167  0.167
     eigenvectors (columns):
       1.000  0.000  0.000
       0.000  1.000  0.000
       0.000  0.000  1.000
     occupation matrix ns (before diag.):
       0.167  0.000  0.000
       0.000  0.167  0.000
       0.000  0.000  0.167
     ------------------------ ATOM   42 ------------------------
     Tr[ns( 42)] =   1.00000
     eigenvalues:
       0.167  0.167  0.167
     eigenvectors (columns):
       1.000  0.000  0.000
       0.000  1.000  0.000
       0.000  0.000  1.000
     occupation matrix ns (before diag.):
       0.167  0.000  0.000
       0.000  0.167  0.000
       0.000  0.000  0.167
     ------------------------ ATOM   43 ------------------------
     Tr[ns( 43)] =   1.00000
     eigenvalues:
       0.167  0.167  0.167
     eigenvectors (columns):
       1.000  0.000  0.000
       0.000  1.000  0.000
       0.000  0.000  1.000
     occupation matrix ns (before diag.):
       0.167  0.000  0.000
       0.000  0.167  0.000
       0.000  0.000  0.167
     ------------------------ ATOM   44 ------------------------
     Tr[ns( 44)] =   1.00000
     eigenvalues:
       0.167  0.167  0.167
     eigenvectors (columns):
       1.000  0.000  0.000
       0.000  1.000  0.000
       0.000  0.000  1.000
     occupation matrix ns (before diag.):
       0.167  0.000  0.000
       0.000  0.167  0.000
       0.000  0.000  0.167
     ------------------------ ATOM   45 ------------------------
     Tr[ns( 45)] =   3.00000
     eigenvalues:
       0.500  0.500  0.500
     eigenvectors (columns):
       1.000  0.000  0.000
       0.000  1.000  0.000
       0.000  0.000  1.000
     occupation matrix ns (before diag.):
       0.500  0.000  0.000
       0.000  0.500  0.000
       0.000  0.000  0.500
     ------------------------ ATOM   46 ------------------------
     Tr[ns( 46)] =   3.00000
     eigenvalues:
       0.500  0.500  0.500
     eigenvectors (columns):
       1.000  0.000  0.000
       0.000  1.000  0.000
       0.000  0.000  1.000
     occupation matrix ns (before diag.):
       0.500  0.000  0.000
       0.000  0.500  0.000
       0.000  0.000  0.500
     ------------------------ ATOM   47 ------------------------
     Tr[ns( 47)] =   3.00000
     eigenvalues:
       0.500  0.500  0.500
     eigenvectors (columns):
       1.000  0.000  0.000
       0.000  1.000  0.000
       0.000  0.000  1.000
     occupation matrix ns (before diag.):
       0.500  0.000  0.000
       0.000  0.500  0.000
       0.000  0.000  0.500
     ------------------------ ATOM   48 ------------------------
     Tr[ns( 48)] =   3.00000
     eigenvalues:
       0.500  0.500  0.500
     eigenvectors (columns):
       1.000  0.000  0.000
       0.000  1.000  0.000
       0.000  0.000  1.000
     occupation matrix ns (before diag.):
       0.500  0.000  0.000
       0.000  0.500  0.000
       0.000  0.000  0.500
     ------------------------ ATOM   49 ------------------------
     Tr[ns( 49)] =   1.00000
     eigenvalues:
       0.167  0.167  0.167
     eigenvectors (columns):
       1.000  0.000  0.000
       0.000  1.000  0.000
       0.000  0.000  1.000
     occupation matrix ns (before diag.):
       0.167  0.000  0.000
       0.000  0.167  0.000
       0.000  0.000  0.167
     ------------------------ ATOM   50 ------------------------
     Tr[ns( 50)] =   1.00000
     eigenvalues:
       0.167  0.167  0.167
     eigenvectors (columns):
       1.000  0.000  0.000
       0.000  1.000  0.000
       0.000  0.000  1.000
     occupation matrix ns (before diag.):
       0.167  0.000  0.000
       0.000  0.167  0.000
       0.000  0.000  0.167
     ------------------------ ATOM   51 ------------------------
     Tr[ns( 51)] =   1.00000
     eigenvalues:
       0.167  0.167  0.167
     eigenvectors (columns):
       1.000  0.000  0.000
       0.000  1.000  0.000
       0.000  0.000  1.000
     occupation matrix ns (before diag.):
       0.167  0.000  0.000
       0.000  0.167  0.000
       0.000  0.000  0.167
     ------------------------ ATOM   52 ------------------------
     Tr[ns( 52)] =   1.00000
     eigenvalues:
       0.167  0.167  0.167
     eigenvectors (columns):
       1.000  0.000  0.000
       0.000  1.000  0.000
       0.000  0.000  1.000
     occupation matrix ns (before diag.):
       0.167  0.000  0.000
       0.000  0.167  0.000
       0.000  0.000  0.167
     ------------------------ ATOM   53 ------------------------
     Tr[ns( 53)] =   3.00000
     eigenvalues:
       0.500  0.500  0.500
     eigenvectors (columns):
       1.000  0.000  0.000
       0.000  1.000  0.000
       0.000  0.000  1.000
     occupation matrix ns (before diag.):
       0.500  0.000  0.000
       0.000  0.500  0.000
       0.000  0.000  0.500
     ------------------------ ATOM   54 ------------------------
     Tr[ns( 54)] =   3.00000
     eigenvalues:
       0.500  0.500  0.500
     eigenvectors (columns):
       1.000  0.000  0.000
       0.000  1.000  0.000
       0.000  0.000  1.000
     occupation matrix ns (before diag.):
       0.500  0.000  0.000
       0.000  0.500  0.000
       0.000  0.000  0.500
     ------------------------ ATOM   55 ------------------------
     Tr[ns( 55)] =   3.00000
     eigenvalues:
       0.500  0.500  0.500
     eigenvectors (columns):
       1.000  0.000  0.000
       0.000  1.000  0.000
       0.000  0.000  1.000
     occupation matrix ns (before diag.):
       0.500  0.000  0.000
       0.000  0.500  0.000
       0.000  0.000  0.500
     ------------------------ ATOM   56 ------------------------
     Tr[ns( 56)] =   3.00000
     eigenvalues:
       0.500  0.500  0.500
     eigenvectors (columns):
       1.000  0.000  0.000
       0.000  1.000  0.000
       0.000  0.000  1.000
     occupation matrix ns (before diag.):
       0.500  0.000  0.000
       0.000  0.500  0.000
       0.000  0.000  0.500
     ------------------------ ATOM   57 ------------------------
     Tr[ns( 57)] =   1.00000
     eigenvalues:
       0.167  0.167  0.167
     eigenvectors (columns):
       1.000  0.000  0.000
       0.000  1.000  0.000
       0.000  0.000  1.000
     occupation matrix ns (before diag.):
       0.167  0.000  0.000
       0.000  0.167  0.000
       0.000  0.000  0.167
     ------------------------ ATOM   58 ------------------------
     Tr[ns( 58)] =   1.00000
     eigenvalues:
       0.167  0.167  0.167
     eigenvectors (columns):
       1.000  0.000  0.000
       0.000  1.000  0.000
       0.000  0.000  1.000
     occupation matrix ns (before diag.):
       0.167  0.000  0.000
       0.000  0.167  0.000
       0.000  0.000  0.167
     ------------------------ ATOM   59 ------------------------
     Tr[ns( 59)] =   1.00000
     eigenvalues:
       0.167  0.167  0.167
     eigenvectors (columns):
       1.000  0.000  0.000
       0.000  1.000  0.000
       0.000  0.000  1.000
     occupation matrix ns (before diag.):
       0.167  0.000  0.000
       0.000  0.167  0.000
       0.000  0.000  0.167
     ------------------------ ATOM   60 ------------------------
     Tr[ns( 60)] =   1.00000
     eigenvalues:
       0.167  0.167  0.167
     eigenvectors (columns):
       1.000  0.000  0.000
       0.000  1.000  0.000
       0.000  0.000  1.000
     occupation matrix ns (before diag.):
       0.167  0.000  0.000
       0.000  0.167  0.000
       0.000  0.000  0.167
     ------------------------ ATOM   61 ------------------------
     Tr[ns( 61)] =   3.00000
     eigenvalues:
       0.500  0.500  0.500
     eigenvectors (columns):
       1.000  0.000  0.000
       0.000  1.000  0.000
       0.000  0.000  1.000
     occupation matrix ns (before diag.):
       0.500  0.000  0.000
       0.000  0.500  0.000
       0.000  0.000  0.500
     ------------------------ ATOM   62 ------------------------
     Tr[ns( 62)] =   3.00000
     eigenvalues:
       0.500  0.500  0.500
     eigenvectors (columns):
       1.000  0.000  0.000
       0.000  1.000  0.000
       0.000  0.000  1.000
     occupation matrix ns (before diag.):
       0.500  0.000  0.000
       0.000  0.500  0.000
       0.000  0.000  0.500
     ------------------------ ATOM   63 ------------------------
     Tr[ns( 63)] =   3.00000
     eigenvalues:
       0.500  0.500  0.500
     eigenvectors (columns):
       1.000  0.000  0.000
       0.000  1.000  0.000
       0.000  0.000  1.000
     occupation matrix ns (before diag.):
       0.500  0.000  0.000
       0.000  0.500  0.000
       0.000  0.000  0.500
     ------------------------ ATOM   64 ------------------------
     Tr[ns( 64)] =   3.00000
     eigenvalues:
       0.500  0.500  0.500
     eigenvectors (columns):
       1.000  0.000  0.000
       0.000  1.000  0.000
       0.000  0.000  1.000
     occupation matrix ns (before diag.):
       0.500  0.000  0.000
       0.000  0.500  0.000
       0.000  0.000  0.500
     ------------------------ ATOM   65 ------------------------
     Tr[ns( 65)] =   1.00000
     eigenvalues:
       0.167  0.167  0.167
     eigenvectors (columns):
       1.000  0.000  0.000
       0.000  1.000  0.000
       0.000  0.000  1.000
     occupation matrix ns (before diag.):
       0.167  0.000  0.000
       0.000  0.167  0.000
       0.000  0.000  0.167
     ------------------------ ATOM   66 ------------------------
     Tr[ns( 66)] =   1.00000
     eigenvalues:
       0.167  0.167  0.167
     eigenvectors (columns):
       1.000  0.000  0.000
       0.000  1.000  0.000
       0.000  0.000  1.000
     occupation matrix ns (before diag.):
       0.167  0.000  0.000
       0.000  0.167  0.000
       0.000  0.000  0.167
     ------------------------ ATOM   67 ------------------------
     Tr[ns( 67)] =   1.00000
     eigenvalues:
       0.167  0.167  0.167
     eigenvectors (columns):
       1.000  0.000  0.000
       0.000  1.000  0.000
       0.000  0.000  1.000
     occupation matrix ns (before diag.):
       0.167  0.000  0.000
       0.000  0.167  0.000
       0.000  0.000  0.167
     ------------------------ ATOM   68 ------------------------
     Tr[ns( 68)] =   1.00000
     eigenvalues:
       0.167  0.167  0.167
     eigenvectors (columns):
       1.000  0.000  0.000
       0.000  1.000  0.000
       0.000  0.000  1.000
     occupation matrix ns (before diag.):
       0.167  0.000  0.000
       0.000  0.167  0.000
       0.000  0.000  0.167
     ------------------------ ATOM   69 ------------------------
     Tr[ns( 69)] =   3.00000
     eigenvalues:
       0.500  0.500  0.500
     eigenvectors (columns):
       1.000  0.000  0.000
       0.000  1.000  0.000
       0.000  0.000  1.000
     occupation matrix ns (before diag.):
       0.500  0.000  0.000
       0.000  0.500  0.000
       0.000  0.000  0.500
     ------------------------ ATOM   70 ------------------------
     Tr[ns( 70)] =   3.00000
     eigenvalues:
       0.500  0.500  0.500
     eigenvectors (columns):
       1.000  0.000  0.000
       0.000  1.000  0.000
       0.000  0.000  1.000
     occupation matrix ns (before diag.):
       0.500  0.000  0.000
       0.000  0.500  0.000
       0.000  0.000  0.500
     ------------------------ ATOM   71 ------------------------
     Tr[ns( 71)] =   3.00000
     eigenvalues:
       0.500  0.500  0.500
     eigenvectors (columns):
       1.000  0.000  0.000
       0.000  1.000  0.000
       0.000  0.000  1.000
     occupation matrix ns (before diag.):
       0.500  0.000  0.000
       0.000  0.500  0.000
       0.000  0.000  0.500
     ------------------------ ATOM   72 ------------------------
     Tr[ns( 72)] =   3.00000
     eigenvalues:
       0.500  0.500  0.500
     eigenvectors (columns):
       1.000  0.000  0.000
       0.000  1.000  0.000
       0.000  0.000  1.000
     occupation matrix ns (before diag.):
       0.500  0.000  0.000
       0.000  0.500  0.000
       0.000  0.000  0.500
     ------------------------ ATOM   73 ------------------------
     Tr[ns( 73)] =   1.00000
     eigenvalues:
       0.167  0.167  0.167
     eigenvectors (columns):
       1.000  0.000  0.000
       0.000  1.000  0.000
       0.000  0.000  1.000
     occupation matrix ns (before diag.):
       0.167  0.000  0.000
       0.000  0.167  0.000
       0.000  0.000  0.167
     ------------------------ ATOM   74 ------------------------
     Tr[ns( 74)] =   1.00000
     eigenvalues:
       0.167  0.167  0.167
     eigenvectors (columns):
       1.000  0.000  0.000
       0.000  1.000  0.000
       0.000  0.000  1.000
     occupation matrix ns (before diag.):
       0.167  0.000  0.000
       0.000  0.167  0.000
       0.000  0.000  0.167
     ------------------------ ATOM   75 ------------------------
     Tr[ns( 75)] =   1.00000
     eigenvalues:
       0.167  0.167  0.167
     eigenvectors (columns):
       1.000  0.000  0.000
       0.000  1.000  0.000
       0.000  0.000  1.000
     occupation matrix ns (before diag.):
       0.167  0.000  0.000
       0.000  0.167  0.000
       0.000  0.000  0.167
     ------------------------ ATOM   76 ------------------------
     Tr[ns( 76)] =   1.00000
     eigenvalues:
       0.167  0.167  0.167
     eigenvectors (columns):
       1.000  0.000  0.000
       0.000  1.000  0.000
       0.000  0.000  1.000
     occupation matrix ns (before diag.):
       0.167  0.000  0.000
       0.000  0.167  0.000
       0.000  0.000  0.167
     ------------------------ ATOM   77 ------------------------
     Tr[ns( 77)] =   3.00000
     eigenvalues:
       0.500  0.500  0.500
     eigenvectors (columns):
       1.000  0.000  0.000
       0.000  1.000  0.000
       0.000  0.000  1.000
     occupation matrix ns (before diag.):
       0.500  0.000  0.000
       0.000  0.500  0.000
       0.000  0.000  0.500
     ------------------------ ATOM   78 ------------------------
     Tr[ns( 78)] =   3.00000
     eigenvalues:
       0.500  0.500  0.500
     eigenvectors (columns):
       1.000  0.000  0.000
       0.000  1.000  0.000
       0.000  0.000  1.000
     occupation matrix ns (before diag.):
       0.500  0.000  0.000
       0.000  0.500  0.000
       0.000  0.000  0.500
     ------------------------ ATOM   79 ------------------------
     Tr[ns( 79)] =   3.00000
     eigenvalues:
       0.500  0.500  0.500
     eigenvectors (columns):
       1.000  0.000  0.000
       0.000  1.000  0.000
       0.000  0.000  1.000
     occupation matrix ns (before diag.):
       0.500  0.000  0.000
       0.000  0.500  0.000
       0.000  0.000  0.500
     ------------------------ ATOM   80 ------------------------
     Tr[ns( 80)] =   3.00000
     eigenvalues:
       0.500  0.500  0.500
     eigenvectors (columns):
       1.000  0.000  0.000
       0.000  1.000  0.000
       0.000  0.000  1.000
     occupation matrix ns (before diag.):
       0.500  0.000  0.000
       0.000  0.500  0.000
       0.000  0.000  0.500
     ------------------------ ATOM   81 ------------------------
     Tr[ns( 81)] =   1.00000
     eigenvalues:
       0.167  0.167  0.167
     eigenvectors (columns):
       1.000  0.000  0.000
       0.000  1.000  0.000
       0.000  0.000  1.000
     occupation matrix ns (before diag.):
       0.167  0.000  0.000
       0.000  0.167  0.000
       0.000  0.000  0.167
     ------------------------ ATOM   82 ------------------------
     Tr[ns( 82)] =   1.00000
     eigenvalues:
       0.167  0.167  0.167
     eigenvectors (columns):
       1.000  0.000  0.000
       0.000  1.000  0.000
       0.000  0.000  1.000
     occupation matrix ns (before diag.):
       0.167  0.000  0.000
       0.000  0.167  0.000
       0.000  0.000  0.167
     ------------------------ ATOM   83 ------------------------
     Tr[ns( 83)] =   1.00000
     eigenvalues:
       0.167  0.167  0.167
     eigenvectors (columns):
       1.000  0.000  0.000
       0.000  1.000  0.000
       0.000  0.000  1.000
     occupation matrix ns (before diag.):
       0.167  0.000  0.000
       0.000  0.167  0.000
       0.000  0.000  0.167
     ------------------------ ATOM   84 ------------------------
     Tr[ns( 84)] =   1.00000
     eigenvalues:
       0.167  0.167  0.167
     eigenvectors (columns):
       1.000  0.000  0.000
       0.000  1.000  0.000
       0.000  0.000  1.000
     occupation matrix ns (before diag.):
       0.167  0.000  0.000
       0.000  0.167  0.000
       0.000  0.000  0.167
     ------------------------ ATOM   85 ------------------------
     Tr[ns( 85)] =   3.00000
     eigenvalues:
       0.500  0.500  0.500
     eigenvectors (columns):
       1.000  0.000  0.000
       0.000  1.000  0.000
       0.000  0.000  1.000
     occupation matrix ns (before diag.):
       0.500  0.000  0.000
       0.000  0.500  0.000
       0.000  0.000  0.500
     ------------------------ ATOM   86 ------------------------
     Tr[ns( 86)] =   3.00000
     eigenvalues:
       0.500  0.500  0.500
     eigenvectors (columns):
       1.000  0.000  0.000
       0.000  1.000  0.000
       0.000  0.000  1.000
     occupation matrix ns (before diag.):
       0.500  0.000  0.000
       0.000  0.500  0.000
       0.000  0.000  0.500
     ------------------------ ATOM   87 ------------------------
     Tr[ns( 87)] =   3.00000
     eigenvalues:
       0.500  0.500  0.500
     eigenvectors (columns):
       1.000  0.000  0.000
       0.000  1.000  0.000
       0.000  0.000  1.000
     occupation matrix ns (before diag.):
       0.500  0.000  0.000
       0.000  0.500  0.000
       0.000  0.000  0.500
     ------------------------ ATOM   88 ------------------------
     Tr[ns( 88)] =   3.00000
     eigenvalues:
       0.500  0.500  0.500
     eigenvectors (columns):
       1.000  0.000  0.000
       0.000  1.000  0.000
       0.000  0.000  1.000
     occupation matrix ns (before diag.):
       0.500  0.000  0.000
       0.000  0.500  0.000
       0.000  0.000  0.500
     ------------------------ ATOM   89 ------------------------
     Tr[ns( 89)] =   1.00000
     eigenvalues:
       0.167  0.167  0.167
     eigenvectors (columns):
       1.000  0.000  0.000
       0.000  1.000  0.000
       0.000  0.000  1.000
     occupation matrix ns (before diag.):
       0.167  0.000  0.000
       0.000  0.167  0.000
       0.000  0.000  0.167
     ------------------------ ATOM   90 ------------------------
     Tr[ns( 90)] =   1.00000
     eigenvalues:
       0.167  0.167  0.167
     eigenvectors (columns):
       1.000  0.000  0.000
       0.000  1.000  0.000
       0.000  0.000  1.000
     occupation matrix ns (before diag.):
       0.167  0.000  0.000
       0.000  0.167  0.000
       0.000  0.000  0.167
     ------------------------ ATOM   91 ------------------------
     Tr[ns( 91)] =   1.00000
     eigenvalues:
       0.167  0.167  0.167
     eigenvectors (columns):
       1.000  0.000  0.000
       0.000  1.000  0.000
       0.000  0.000  1.000
     occupation matrix ns (before diag.):
       0.167  0.000  0.000
       0.000  0.167  0.000
       0.000  0.000  0.167
     ------------------------ ATOM   92 ------------------------
     Tr[ns( 92)] =   1.00000
     eigenvalues:
       0.167  0.167  0.167
     eigenvectors (columns):
       1.000  0.000  0.000
       0.000  1.000  0.000
       0.000  0.000  1.000
     occupation matrix ns (before diag.):
       0.167  0.000  0.000
       0.000  0.167  0.000
       0.000  0.000  0.167
     ------------------------ ATOM   93 ------------------------
     Tr[ns( 93)] =   3.00000
     eigenvalues:
       0.500  0.500  0.500
     eigenvectors (columns):
       1.000  0.000  0.000
       0.000  1.000  0.000
       0.000  0.000  1.000
     occupation matrix ns (before diag.):
       0.500  0.000  0.000
       0.000  0.500  0.000
       0.000  0.000  0.500
     ------------------------ ATOM   94 ------------------------
     Tr[ns( 94)] =   3.00000
     eigenvalues:
       0.500  0.500  0.500
     eigenvectors (columns):
       1.000  0.000  0.000
       0.000  1.000  0.000
       0.000  0.000  1.000
     occupation matrix ns (before diag.):
       0.500  0.000  0.000
       0.000  0.500  0.000
       0.000  0.000  0.500
     ------------------------ ATOM   95 ------------------------
     Tr[ns( 95)] =   3.00000
     eigenvalues:
       0.500  0.500  0.500
     eigenvectors (columns):
       1.000  0.000  0.000
       0.000  1.000  0.000
       0.000  0.000  1.000
     occupation matrix ns (before diag.):
       0.500  0.000  0.000
       0.000  0.500  0.000
       0.000  0.000  0.500
     ------------------------ ATOM   96 ------------------------
     Tr[ns( 96)] =   3.00000
     eigenvalues:
       0.500  0.500  0.500
     eigenvectors (columns):
       1.000  0.000  0.000
       0.000  1.000  0.000
       0.000  0.000  1.000
     occupation matrix ns (before diag.):
       0.500  0.000  0.000
       0.000  0.500  0.000
       0.000  0.000  0.500
     ------------------------ ATOM   97 ------------------------
     Tr[ns( 97)] =   1.00000
     eigenvalues:
       0.167  0.167  0.167
     eigenvectors (columns):
       1.000  0.000  0.000
       0.000  1.000  0.000
       0.000  0.000  1.000
     occupation matrix ns (before diag.):
       0.167  0.000  0.000
       0.000  0.167  0.000
       0.000  0.000  0.167
     ------------------------ ATOM   98 ------------------------
     Tr[ns( 98)] =   1.00000
     eigenvalues:
       0.167  0.167  0.167
     eigenvectors (columns):
       1.000  0.000  0.000
       0.000  1.000  0.000
       0.000  0.000  1.000
     occupation matrix ns (before diag.):
       0.167  0.000  0.000
       0.000  0.167  0.000
       0.000  0.000  0.167
     ------------------------ ATOM   99 ------------------------
     Tr[ns( 99)] =   1.00000
     eigenvalues:
       0.167  0.167  0.167
     eigenvectors (columns):
       1.000  0.000  0.000
       0.000  1.000  0.000
       0.000  0.000  1.000
     occupation matrix ns (before diag.):
       0.167  0.000  0.000
       0.000  0.167  0.000
       0.000  0.000  0.167
     ------------------------ ATOM  100 ------------------------
     Tr[ns(100)] =   1.00000
     eigenvalues:
       0.167  0.167  0.167
     eigenvectors (columns):
       1.000  0.000  0.000
       0.000  1.000  0.000
       0.000  0.000  1.000
     occupation matrix ns (before diag.):
       0.167  0.000  0.000
       0.000  0.167  0.000
       0.000  0.000  0.167
     ------------------------ ATOM  101 ------------------------
     Tr[ns(101)] =   3.00000
     eigenvalues:
       0.500  0.500  0.500
     eigenvectors (columns):
       1.000  0.000  0.000
       0.000  1.000  0.000
       0.000  0.000  1.000
     occupation matrix ns (before diag.):
       0.500  0.000  0.000
       0.000  0.500  0.000
       0.000  0.000  0.500
     ------------------------ ATOM  102 ------------------------
     Tr[ns(102)] =   3.00000
     eigenvalues:
       0.500  0.500  0.500
     eigenvectors (columns):
       1.000  0.000  0.000
       0.000  1.000  0.000
       0.000  0.000  1.000
     occupation matrix ns (before diag.):
       0.500  0.000  0.000
       0.000  0.500  0.000
       0.000  0.000  0.500
     ------------------------ ATOM  103 ------------------------
     Tr[ns(103)] =   3.00000
     eigenvalues:
       0.500  0.500  0.500
     eigenvectors (columns):
       1.000  0.000  0.000
       0.000  1.000  0.000
       0.000  0.000  1.000
     occupation matrix ns (before diag.):
       0.500  0.000  0.000
       0.000  0.500  0.000
       0.000  0.000  0.500
     ------------------------ ATOM  104 ------------------------
     Tr[ns(104)] =   3.00000
     eigenvalues:
       0.500  0.500  0.500
     eigenvectors (columns):
       1.000  0.000  0.000
       0.000  1.000  0.000
       0.000  0.000  1.000
     occupation matrix ns (before diag.):
       0.500  0.000  0.000
       0.000  0.500  0.000
       0.000  0.000  0.500
     ------------------------ ATOM  105 ------------------------
     Tr[ns(105)] =   1.00000
     eigenvalues:
       0.167  0.167  0.167
     eigenvectors (columns):
       1.000  0.000  0.000
       0.000  1.000  0.000
       0.000  0.000  1.000
     occupation matrix ns (before diag.):
       0.167  0.000  0.000
       0.000  0.167  0.000
       0.000  0.000  0.167
     ------------------------ ATOM  106 ------------------------
     Tr[ns(106)] =   1.00000
     eigenvalues:
       0.167  0.167  0.167
     eigenvectors (columns):
       1.000  0.000  0.000
       0.000  1.000  0.000
       0.000  0.000  1.000
     occupation matrix ns (before diag.):
       0.167  0.000  0.000
       0.000  0.167  0.000
       0.000  0.000  0.167
     ------------------------ ATOM  107 ------------------------
     Tr[ns(107)] =   1.00000
     eigenvalues:
       0.167  0.167  0.167
     eigenvectors (columns):
       1.000  0.000  0.000
       0.000  1.000  0.000
       0.000  0.000  1.000
     occupation matrix ns (before diag.):
       0.167  0.000  0.000
       0.000  0.167  0.000
       0.000  0.000  0.167
     ------------------------ ATOM  108 ------------------------
     Tr[ns(108)] =   1.00000
     eigenvalues:
       0.167  0.167  0.167
     eigenvectors (columns):
       1.000  0.000  0.000
       0.000  1.000  0.000
       0.000  0.000  1.000
     occupation matrix ns (before diag.):
       0.167  0.000  0.000
       0.000  0.167  0.000
       0.000  0.000  0.167
     ------------------------ ATOM  109 ------------------------
     Tr[ns(109)] =   3.00000
     eigenvalues:
       0.500  0.500  0.500
     eigenvectors (columns):
       1.000  0.000  0.000
       0.000  1.000  0.000
       0.000  0.000  1.000
     occupation matrix ns (before diag.):
       0.500  0.000  0.000
       0.000  0.500  0.000
       0.000  0.000  0.500
     ------------------------ ATOM  110 ------------------------
     Tr[ns(110)] =   3.00000
     eigenvalues:
       0.500  0.500  0.500
     eigenvectors (columns):
       1.000  0.000  0.000
       0.000  1.000  0.000
       0.000  0.000  1.000
     occupation matrix ns (before diag.):
       0.500  0.000  0.000
       0.000  0.500  0.000
       0.000  0.000  0.500
     ------------------------ ATOM  111 ------------------------
     Tr[ns(111)] =   3.00000
     eigenvalues:
       0.500  0.500  0.500
     eigenvectors (columns):
       1.000  0.000  0.000
       0.000  1.000  0.000
       0.000  0.000  1.000
     occupation matrix ns (before diag.):
       0.500  0.000  0.000
       0.000  0.500  0.000
       0.000  0.000  0.500
     ------------------------ ATOM  112 ------------------------
     Tr[ns(112)] =   3.00000
     eigenvalues:
       0.500  0.500  0.500
     eigenvectors (columns):
       1.000  0.000  0.000
       0.000  1.000  0.000
       0.000  0.000  1.000
     occupation matrix ns (before diag.):
       0.500  0.000  0.000
       0.000  0.500  0.000
       0.000  0.000  0.500
     ------------------------ ATOM  113 ------------------------
     Tr[ns(113)] =   1.00000
     eigenvalues:
       0.167  0.167  0.167
     eigenvectors (columns):
       1.000  0.000  0.000
       0.000  1.000  0.000
       0.000  0.000  1.000
     occupation matrix ns (before diag.):
       0.167  0.000  0.000
       0.000  0.167  0.000
       0.000  0.000  0.167
     ------------------------ ATOM  114 ------------------------
     Tr[ns(114)] =   1.00000
     eigenvalues:
       0.167  0.167  0.167
     eigenvectors (columns):
       1.000  0.000  0.000
       0.000  1.000  0.000
       0.000  0.000  1.000
     occupation matrix ns (before diag.):
       0.167  0.000  0.000
       0.000  0.167  0.000
       0.000  0.000  0.167
     ------------------------ ATOM  115 ------------------------
     Tr[ns(115)] =   1.00000
     eigenvalues:
       0.167  0.167  0.167
     eigenvectors (columns):
       1.000  0.000  0.000
       0.000  1.000  0.000
       0.000  0.000  1.000
     occupation matrix ns (before diag.):
       0.167  0.000  0.000
       0.000  0.167  0.000
       0.000  0.000  0.167
     ------------------------ ATOM  116 ------------------------
     Tr[ns(116)] =   1.00000
     eigenvalues:
       0.167  0.167  0.167
     eigenvectors (columns):
       1.000  0.000  0.000
       0.000  1.000  0.000
       0.000  0.000  1.000
     occupation matrix ns (before diag.):
       0.167  0.000  0.000
       0.000  0.167  0.000
       0.000  0.000  0.167
     ------------------------ ATOM  117 ------------------------
     Tr[ns(117)] =   3.00000
     eigenvalues:
       0.500  0.500  0.500
     eigenvectors (columns):
       1.000  0.000  0.000
       0.000  1.000  0.000
       0.000  0.000  1.000
     occupation matrix ns (before diag.):
       0.500  0.000  0.000
       0.000  0.500  0.000
       0.000  0.000  0.500
     ------------------------ ATOM  118 ------------------------
     Tr[ns(118)] =   3.00000
     eigenvalues:
       0.500  0.500  0.500
     eigenvectors (columns):
       1.000  0.000  0.000
       0.000  1.000  0.000
       0.000  0.000  1.000
     occupation matrix ns (before diag.):
       0.500  0.000  0.000
       0.000  0.500  0.000
       0.000  0.000  0.500
     ------------------------ ATOM  119 ------------------------
     Tr[ns(119)] =   3.00000
     eigenvalues:
       0.500  0.500  0.500
     eigenvectors (columns):
       1.000  0.000  0.000
       0.000  1.000  0.000
       0.000  0.000  1.000
     occupation matrix ns (before diag.):
       0.500  0.000  0.000
       0.000  0.500  0.000
       0.000  0.000  0.500
     ------------------------ ATOM  120 ------------------------
     Tr[ns(120)] =   3.00000
     eigenvalues:
       0.500  0.500  0.500
     eigenvectors (columns):
       1.000  0.000  0.000
       0.000  1.000  0.000
       0.000  0.000  1.000
     occupation matrix ns (before diag.):
       0.500  0.000  0.000
       0.000  0.500  0.000
       0.000  0.000  0.500
     ------------------------ ATOM  121 ------------------------
     Tr[ns(121)] =   1.00000
     eigenvalues:
       0.167  0.167  0.167
     eigenvectors (columns):
       1.000  0.000  0.000
       0.000  1.000  0.000
       0.000  0.000  1.000
     occupation matrix ns (before diag.):
       0.167  0.000  0.000
       0.000  0.167  0.000
       0.000  0.000  0.167
     ------------------------ ATOM  122 ------------------------
     Tr[ns(122)] =   1.00000
     eigenvalues:
       0.167  0.167  0.167
     eigenvectors (columns):
       1.000  0.000  0.000
       0.000  1.000  0.000
       0.000  0.000  1.000
     occupation matrix ns (before diag.):
       0.167  0.000  0.000
       0.000  0.167  0.000
       0.000  0.000  0.167
     ------------------------ ATOM  123 ------------------------
     Tr[ns(123)] =   1.00000
     eigenvalues:
       0.167  0.167  0.167
     eigenvectors (columns):
       1.000  0.000  0.000
       0.000  1.000  0.000
       0.000  0.000  1.000
     occupation matrix ns (before diag.):
       0.167  0.000  0.000
       0.000  0.167  0.000
       0.000  0.000  0.167
     ------------------------ ATOM  124 ------------------------
     Tr[ns(124)] =   1.00000
     eigenvalues:
       0.167  0.167  0.167
     eigenvectors (columns):
       1.000  0.000  0.000
       0.000  1.000  0.000
       0.000  0.000  1.000
     occupation matrix ns (before diag.):
       0.167  0.000  0.000
       0.000  0.167  0.000
       0.000  0.000  0.167
     ------------------------ ATOM  125 ------------------------
     Tr[ns(125)] =   3.00000
     eigenvalues:
       0.500  0.500  0.500
     eigenvectors (columns):
       1.000  0.000  0.000
       0.000  1.000  0.000
       0.000  0.000  1.000
     occupation matrix ns (before diag.):
       0.500  0.000  0.000
       0.000  0.500  0.000
       0.000  0.000  0.500
     ------------------------ ATOM  126 ------------------------
     Tr[ns(126)] =   3.00000
     eigenvalues:
       0.500  0.500  0.500
     eigenvectors (columns):
       1.000  0.000  0.000
       0.000  1.000  0.000
       0.000  0.000  1.000
     occupation matrix ns (before diag.):
       0.500  0.000  0.000
       0.000  0.500  0.000
       0.000  0.000  0.500
     ------------------------ ATOM  127 ------------------------
     Tr[ns(127)] =   3.00000
     eigenvalues:
       0.500  0.500  0.500
     eigenvectors (columns):
       1.000  0.000  0.000
       0.000  1.000  0.000
       0.000  0.000  1.000
     occupation matrix ns (before diag.):
       0.500  0.000  0.000
       0.000  0.500  0.000
       0.000  0.000  0.500
     ------------------------ ATOM  128 ------------------------
     Tr[ns(128)] =   3.00000
     eigenvalues:
       0.500  0.500  0.500
     eigenvectors (columns):
       1.000  0.000  0.000
       0.000  1.000  0.000
       0.000  0.000  1.000
     occupation matrix ns (before diag.):
       0.500  0.000  0.000
       0.000  0.500  0.000
       0.000  0.000  0.500
     ------------------------ ATOM  129 ------------------------
     Tr[ns(129)] =   1.00000
     eigenvalues:
       0.167  0.167  0.167
     eigenvectors (columns):
       1.000  0.000  0.000
       0.000  1.000  0.000
       0.000  0.000  1.000
     occupation matrix ns (before diag.):
       0.167  0.000  0.000
       0.000  0.167  0.000
       0.000  0.000  0.167
     ------------------------ ATOM  130 ------------------------
     Tr[ns(130)] =   1.00000
     eigenvalues:
       0.167  0.167  0.167
     eigenvectors (columns):
       1.000  0.000  0.000
       0.000  1.000  0.000
       0.000  0.000  1.000
     occupation matrix ns (before diag.):
       0.167  0.000  0.000
       0.000  0.167  0.000
       0.000  0.000  0.167
     ------------------------ ATOM  131 ------------------------
     Tr[ns(131)] =   1.00000
     eigenvalues:
       0.167  0.167  0.167
     eigenvectors (columns):
       1.000  0.000  0.000
       0.000  1.000  0.000
       0.000  0.000  1.000
     occupation matrix ns (before diag.):
       0.167  0.000  0.000
       0.000  0.167  0.000
       0.000  0.000  0.167
     ------------------------ ATOM  132 ------------------------
     Tr[ns(132)] =   1.00000
     eigenvalues:
       0.167  0.167  0.167
     eigenvectors (columns):
       1.000  0.000  0.000
       0.000  1.000  0.000
       0.000  0.000  1.000
     occupation matrix ns (before diag.):
       0.167  0.000  0.000
       0.000  0.167  0.000
       0.000  0.000  0.167
     ------------------------ ATOM  133 ------------------------
     Tr[ns(133)] =   3.00000
     eigenvalues:
       0.500  0.500  0.500
     eigenvectors (columns):
       1.000  0.000  0.000
       0.000  1.000  0.000
       0.000  0.000  1.000
     occupation matrix ns (before diag.):
       0.500  0.000  0.000
       0.000  0.500  0.000
       0.000  0.000  0.500
     ------------------------ ATOM  134 ------------------------
     Tr[ns(134)] =   3.00000
     eigenvalues:
       0.500  0.500  0.500
     eigenvectors (columns):
       1.000  0.000  0.000
       0.000  1.000  0.000
       0.000  0.000  1.000
     occupation matrix ns (before diag.):
       0.500  0.000  0.000
       0.000  0.500  0.000
       0.000  0.000  0.500
     ------------------------ ATOM  135 ------------------------
     Tr[ns(135)] =   3.00000
     eigenvalues:
       0.500  0.500  0.500
     eigenvectors (columns):
       1.000  0.000  0.000
       0.000  1.000  0.000
       0.000  0.000  1.000
     occupation matrix ns (before diag.):
       0.500  0.000  0.000
       0.000  0.500  0.000
       0.000  0.000  0.500
     ------------------------ ATOM  136 ------------------------
     Tr[ns(136)] =   3.00000
     eigenvalues:
       0.500  0.500  0.500
     eigenvectors (columns):
       1.000  0.000  0.000
       0.000  1.000  0.000
       0.000  0.000  1.000
     occupation matrix ns (before diag.):
       0.500  0.000  0.000
       0.000  0.500  0.000
       0.000  0.000  0.500
     ------------------------ ATOM  137 ------------------------
     Tr[ns(137)] =   1.00000
     eigenvalues:
       0.167  0.167  0.167
     eigenvectors (columns):
       1.000  0.000  0.000
       0.000  1.000  0.000
       0.000  0.000  1.000
     occupation matrix ns (before diag.):
       0.167  0.000  0.000
       0.000  0.167  0.000
       0.000  0.000  0.167
     ------------------------ ATOM  138 ------------------------
     Tr[ns(138)] =   1.00000
     eigenvalues:
       0.167  0.167  0.167
     eigenvectors (columns):
       1.000  0.000  0.000
       0.000  1.000  0.000
       0.000  0.000  1.000
     occupation matrix ns (before diag.):
       0.167  0.000  0.000
       0.000  0.167  0.000
       0.000  0.000  0.167
     ------------------------ ATOM  139 ------------------------
     Tr[ns(139)] =   1.00000
     eigenvalues:
       0.167  0.167  0.167
     eigenvectors (columns):
       1.000  0.000  0.000
       0.000  1.000  0.000
       0.000  0.000  1.000
     occupation matrix ns (before diag.):
       0.167  0.000  0.000
       0.000  0.167  0.000
       0.000  0.000  0.167
     ------------------------ ATOM  140 ------------------------
     Tr[ns(140)] =   1.00000
     eigenvalues:
       0.167  0.167  0.167
     eigenvectors (columns):
       1.000  0.000  0.000
       0.000  1.000  0.000
       0.000  0.000  1.000
     occupation matrix ns (before diag.):
       0.167  0.000  0.000
       0.000  0.167  0.000
       0.000  0.000  0.167
     ------------------------ ATOM  141 ------------------------
     Tr[ns(141)] =   3.00000
     eigenvalues:
       0.500  0.500  0.500
     eigenvectors (columns):
       1.000  0.000  0.000
       0.000  1.000  0.000
       0.000  0.000  1.000
     occupation matrix ns (before diag.):
       0.500  0.000  0.000
       0.000  0.500  0.000
       0.000  0.000  0.500
     ------------------------ ATOM  142 ------------------------
     Tr[ns(142)] =   3.00000
     eigenvalues:
       0.500  0.500  0.500
     eigenvectors (columns):
       1.000  0.000  0.000
       0.000  1.000  0.000
       0.000  0.000  1.000
     occupation matrix ns (before diag.):
       0.500  0.000  0.000
       0.000  0.500  0.000
       0.000  0.000  0.500
     ------------------------ ATOM  143 ------------------------
     Tr[ns(143)] =   3.00000
     eigenvalues:
       0.500  0.500  0.500
     eigenvectors (columns):
       1.000  0.000  0.000
       0.000  1.000  0.000
       0.000  0.000  1.000
     occupation matrix ns (before diag.):
       0.500  0.000  0.000
       0.000  0.500  0.000
       0.000  0.000  0.500
     ------------------------ ATOM  144 ------------------------
     Tr[ns(144)] =   3.00000
     eigenvalues:
       0.500  0.500  0.500
     eigenvectors (columns):
       1.000  0.000  0.000
       0.000  1.000  0.000
       0.000  0.000  1.000
     occupation matrix ns (before diag.):
       0.500  0.000  0.000
       0.000  0.500  0.000
       0.000  0.000  0.500
     ------------------------ ATOM  145 ------------------------
     Tr[ns(145)] =   1.00000
     eigenvalues:
       0.167  0.167  0.167
     eigenvectors (columns):
       1.000  0.000  0.000
       0.000  1.000  0.000
       0.000  0.000  1.000
     occupation matrix ns (before diag.):
       0.167  0.000  0.000
       0.000  0.167  0.000
       0.000  0.000  0.167
     ------------------------ ATOM  146 ------------------------
     Tr[ns(146)] =   1.00000
     eigenvalues:
       0.167  0.167  0.167
     eigenvectors (columns):
       1.000  0.000  0.000
       0.000  1.000  0.000
       0.000  0.000  1.000
     occupation matrix ns (before diag.):
       0.167  0.000  0.000
       0.000  0.167  0.000
       0.000  0.000  0.167
     ------------------------ ATOM  147 ------------------------
     Tr[ns(147)] =   1.00000
     eigenvalues:
       0.167  0.167  0.167
     eigenvectors (columns):
       1.000  0.000  0.000
       0.000  1.000  0.000
       0.000  0.000  1.000
     occupation matrix ns (before diag.):
       0.167  0.000  0.000
       0.000  0.167  0.000
       0.000  0.000  0.167
     ------------------------ ATOM  148 ------------------------
     Tr[ns(148)] =   1.00000
     eigenvalues:
       0.167  0.167  0.167
     eigenvectors (columns):
       1.000  0.000  0.000
       0.000  1.000  0.000
       0.000  0.000  1.000
     occupation matrix ns (before diag.):
       0.167  0.000  0.000
       0.000  0.167  0.000
       0.000  0.000  0.167
     ------------------------ ATOM  149 ------------------------
     Tr[ns(149)] =   3.00000
     eigenvalues:
       0.500  0.500  0.500
     eigenvectors (columns):
       1.000  0.000  0.000
       0.000  1.000  0.000
       0.000  0.000  1.000
     occupation matrix ns (before diag.):
       0.500  0.000  0.000
       0.000  0.500  0.000
       0.000  0.000  0.500
     ------------------------ ATOM  150 ------------------------
     Tr[ns(150)] =   3.00000
     eigenvalues:
       0.500  0.500  0.500
     eigenvectors (columns):
       1.000  0.000  0.000
       0.000  1.000  0.000
       0.000  0.000  1.000
     occupation matrix ns (before diag.):
       0.500  0.000  0.000
       0.000  0.500  0.000
       0.000  0.000  0.500
     ------------------------ ATOM  151 ------------------------
     Tr[ns(151)] =   3.00000
     eigenvalues:
       0.500  0.500  0.500
     eigenvectors (columns):
       1.000  0.000  0.000
       0.000  1.000  0.000
       0.000  0.000  1.000
     occupation matrix ns (before diag.):
       0.500  0.000  0.000
       0.000  0.500  0.000
       0.000  0.000  0.500
     ------------------------ ATOM  152 ------------------------
[...]
   -26.8766 -26.8766 -26.8764 -26.8764 -26.8763 -26.8763 -26.8763 -26.8761
   -26.8758 -26.8758 -26.8757 -26.8754 -26.8753 -26.8753 -26.8753 -26.8750
   -26.8748 -26.8747 -26.8746 -26.8746 -26.8744 -26.8743 -26.8737 -26.8737
   -26.8735 -26.8734 -26.8731 -26.8730 -26.8730 -26.8726 -26.8726 -26.8716
   -26.8715 -26.8711 -26.8710 -26.8710 -26.8707 -26.8705 -26.8703 -26.8702
   -26.8700 -26.8698 -26.8698 -26.8696 -26.8696 -26.8696 -26.8693 -26.8691
   -26.8690 -26.8690 -26.8686 -26.8685 -26.8683 -26.8682 -26.8681 -26.8672
   -26.8671 -26.8671 -26.8669 -26.8657 -26.8653 -26.8643 -26.8641 -26.8632
   -26.8630 -26.8629 -26.8627 -26.8626 -26.8612 -20.2207 -20.2196 -20.2190
   -20.2179 -20.2160 -20.2156 -20.2148 -20.2141 -20.2140 -20.2136 -20.2135
   -20.2119 -20.2117 -20.2114 -20.2114 -20.2112 -20.2111 -20.2111 -20.2109
   -20.2096 -20.2094 -20.2093 -20.2089 -20.2077 -20.2076 -20.2070 -20.2067
   -20.2066 -20.2065 -20.2063 -20.2062 -20.2061 -20.2059 -20.2052 -20.2050
   -20.2050 -20.2047 -20.2036 -20.2035 -20.2032 -20.2023 -20.2021 -20.2009
   -20.2008 -20.2007 -20.2004 -20.1999 -20.1997 -20.1997 -20.1994 -20.1994
   -20.1986 -20.1983 -20.1982 -20.1972 -20.1970 -20.1969 -20.1968 -20.1967
   -20.1959 -20.1956 -20.1954 -20.1947 -20.1944 -20.1941 -20.1938 -20.1935
   -20.1927 -20.1926 -20.1924 -20.1923 -20.1918 -20.1917 -20.1915 -20.1913
   -20.1911 -20.1911 -20.1910 -20.1903 -20.1902 -20.1898 -20.1885 -20.1883
   -20.1880 -20.1879 -20.1876 -20.1876 -20.1873 -20.1872 -20.1872 -20.1870
   -20.1862 -20.1862 -20.1857 -20.1857 -20.1852 -20.1851 -20.1850 -20.1846
   -20.1843 -20.1840 -20.1840 -20.1827 -20.1822 -20.1821 -20.1820 -20.1819
   -20.1815 -20.1810 -20.1800 -20.1794 -20.1791 -20.1781 -20.1772 -20.1771
   -20.1765 -20.1762 -20.1759 -20.1749 -20.1741 -20.1738 -20.1736 -20.1734
   -20.1731 -20.1723 -20.1722 -20.1675 -20.1675 -20.1661 -20.1647 -20.1634
   -20.1631 -20.1619 -20.1589 -20.1529  -7.1733  -7.1696  -7.1679  -7.1650
    -7.1640  -7.1623  -7.1621  -7.1609  -7.1608  -7.1597  -7.1586  -7.1583
    -7.1572  -7.1555  -7.1546  -7.1540  -7.1536  -7.1527  -7.1523  -7.1520
    -7.1514  -7.1505  -7.1490  -7.1487  -7.1479  -7.1469  -7.1468  -7.1462
    -7.1450  -7.1441  -7.1434  -7.1431  -7.1425  -7.1419  -7.1415  -7.1401
    -7.1389  -7.1384  -7.1377  -7.1373  -7.1370  -7.1357  -7.1349  -7.1344
    -7.1334  -7.1328  -7.1320  -7.1314  -7.1307  -7.1292  -7.1284  -7.1273
    -7.1266  -7.1264  -7.1262  -7.1251  -7.1247  -7.1239  -7.1237  -7.1227
    -7.1222  -7.1210  -7.1208  -7.1198  -7.1193  -7.1188  -7.1184  -7.1171
    -7.1169  -7.1163  -7.1150  -7.1140  -7.1119  -7.1094  -7.1074  -7.1063
    -7.1055  -7.1025  -7.1006  -7.0982  -7.0946  -7.0909  -7.0887  -7.0868
    -7.0855  -7.0837  -7.0828  -7.0821  -7.0800  -7.0797  -7.0795  -7.0793
    -7.0788  -7.0773  -7.0768  -7.0765  -7.0757  -7.0751  -7.0747  -7.0742
    -7.0728  -7.0719  -7.0715  -7.0710  -7.0707  -7.0696  -7.0689  -7.0685
    -7.0684  -7.0677  -7.0672  -7.0670  -7.0663  -7.0662  -7.0659  -7.0656
    -7.0650  -7.0647  -7.0645  -7.0638  -7.0632  -7.0628  -7.0622  -7.0615
    -7.0613  -7.0604  -7.0601  -7.0597  -7.0595  -7.0589  -7.0584  -7.0576
    -7.0570  -7.0566  -7.0553  -7.0549  -7.0544  -7.0542  -7.0532  -7.0530
    -7.0528  -7.0518  -7.0512  -7.0511  -7.0504  -7.0495  -7.0493  -7.0491
    -7.0478  -7.0477  -7.0469  -7.0467  -7.0465  -7.0460  -7.0452  -7.0449
    -7.0444  -7.0441  -7.0434  -7.0429  -7.0425  -7.0419  -7.0412  -7.0410
    -7.0409  -7.0406  -7.0403  -7.0399  -7.0392  -7.0389  -7.0386  -7.0383
    -7.0379  -7.0379  -7.0372  -7.0370  -7.0362  -7.0358  -7.0356  -7.0353
    -7.0349  -7.0345  -7.0340  -7.0335  -7.0332  -7.0328  -7.0324  -7.0321
    -7.0315  -7.0313  -7.0312  -7.0310  -7.0307  -7.0303  -7.0301  -7.0294
    -7.0292  -7.0291  -7.0286  -7.0284  -7.0278  -7.0271  -7.0270  -7.0266
    -7.0264  -7.0258  -7.0255  -7.0252  -7.0251  -7.0248  -7.0246  -7.0241
    -7.0235  -7.0231  -7.0230  -7.0228  -7.0226  -7.0220  -7.0218  -7.0215
    -7.0213  -7.0207  -7.0206  -7.0203  -7.0200  -7.0197  -7.0191  -7.0189
    -7.0188  -7.0187  -7.0178  -7.0177  -7.0167  -7.0167  -7.0164  -7.0162
    -7.0158  -7.0158  -7.0154  -7.0149  -7.0145  -7.0145  -7.0141  -7.0136
    -7.0132  -7.0129  -7.0126  -7.0120  -7.0114  -7.0112  -7.0110  -7.0105
    -7.0100  -7.0096  -7.0095  -7.0090  -7.0086  -7.0083  -7.0081  -7.0072
    -7.0071  -7.0069  -7.0066  -7.0062  -7.0060  -7.0055  -7.0052  -7.0047
    -7.0043  -7.0040  -7.0035  -7.0032  -7.0029  -7.0022  -7.0021  -7.0014
    -7.0008  -7.0003  -6.9997  -6.9995  -6.9994  -6.9990  -6.9982  -6.9980
    -6.9976  -6.9973  -6.9971  -6.9963  -6.9957  -6.9954  -6.9947  -6.9942
    -6.9940  -6.9932  -6.9931  -6.9926  -6.9924  -6.9919  -6.9914  -6.9910
    -6.9895  -6.9894  -6.9888  -6.9885  -6.9879  -6.9879  -6.9877  -6.9868
    -6.9866  -6.9860  -6.9853  -6.9851  -6.9844  -6.9837  -6.9836  -6.9825
    -6.9822  -6.9813  -6.9812  -6.9808  -6.9801  -6.9795  -6.9793  -6.9787
    -6.9781  -6.9780  -6.9777  -6.9772  -6.9769  -6.9764  -6.9760  -6.9758
    -6.9755  -6.9750  -6.9743  -6.9740  -6.9735  -6.9732  -6.9730  -6.9721
    -6.9719  -6.9718  -6.9714  -6.9710  -6.9706  -6.9706  -6.9698  -6.9694
    -6.9692  -6.9686  -6.9683  -6.9678  -6.9675  -6.9671  -6.9668  -6.9667
    -6.9662  -6.9658  -6.9655  -6.9650  -6.9648  -6.9645  -6.9643  -6.9639
    -6.9637  -6.9635  -6.9628  -6.9620  -6.9620  -6.9616  -6.9616  -6.9613
    -6.9609  -6.9605  -6.9596  -6.9590  -6.9588  -6.9583  -6.9581  -6.9578
    -6.9575  -6.9569  -6.9567  -6.9564  -6.9561  -6.9557  -6.9553  -6.9548
    -6.9545  -6.9544  -6.9538  -6.9530  -6.9528  -6.9527  -6.9524  -6.9521
    -6.9514  -6.9512  -6.9507  -6.9505  -6.9502  -6.9498  -6.9494  -6.9486
    -6.9482  -6.9477  -6.9475  -6.9473  -6.9470  -6.9462  -6.9460  -6.9457
    -6.9453  -6.9451  -6.9449  -6.9442  -6.9441  -6.9437  -6.9435  -6.9434
    -6.9428  -6.9427  -6.9423  -6.9420  -6.9419  -6.9416  -6.9414  -6.9410
    -6.9407  -6.9403  -6.9401  -6.9399  -6.9392  -6.9391  -6.9389  -6.9384
    -6.9381  -6.9378  -6.9376  -6.9372  -6.9368  -6.9361  -6.9359  -6.9357
    -6.9354  -6.9352  -6.9347  -6.9345  -6.9341  -6.9340  -6.9336  -6.9332
    -6.9326  -6.9320  -6.9319  -6.9318  -6.9315  -6.9311  -6.9306  -6.9302
    -6.9300  -6.9299  -6.9294  -6.9290  -6.9284  -6.9283  -6.9281  -6.9277
    -6.9275  -6.9273  -6.9270  -6.9269  -6.9263  -6.9260  -6.9255  -6.9251
    -6.9250  -6.9246  -6.9244  -6.9240  -6.9236  -6.9232  -6.9227  -6.9222
    -6.9218  -6.9216  -6.9209  -6.9202  -6.9197  -6.9193  -6.9191  -6.9181
    -6.9172  -6.9171  -6.9168  -6.9164  -6.9156  -6.9148  -6.9147  -6.9145
    -6.9138  -6.9131  -6.9125  -6.9125  -6.9121  -6.9112  -6.9101  -6.9089
    -6.9086  -6.9082  -6.9070  -6.9065  -6.9055  -6.9049  -6.9042  -6.9040
    -6.9037  -6.9031  -6.9012  -6.9001  -6.8999  -6.8989  -6.8987  -6.8978
    -6.8968  -6.8949  -6.8937  -6.8935  -6.8926  -6.8919  -6.8900  -6.8890
    -6.8868  -6.8845  -6.8826  -6.8816  -6.8807  -6.8803  -6.8765  -6.8763
    -3.6013  -3.5828  -3.5594  -3.4891  -3.3501  -3.3395  -3.3252  -3.2933
    -3.2730  -3.2348  -3.1976  -3.1790  -3.0831  -3.0813  -3.0579  -3.0100
    -3.0030  -2.9877  -2.9477  -2.8798  -2.8416  -2.8383  -2.8189  -2.8081
    -2.7888  -2.7758  -2.7628  -2.7483  -2.7298  -2.7259  -2.7054  -2.6761
    -2.6170  -2.5887  -2.5691  -2.5556  -2.5493  -2.5342  -2.5253  -2.4990
    -2.4822  -2.4665  -2.4560  -2.4390  -2.4241  -2.4030  -2.3824  -2.3560
    -2.3484  -2.3295  -2.3002  -2.2863  -2.2795  -2.2666  -2.2318  -2.2075
    -2.1952  -2.1903  -2.1650  -2.1563  -2.1415  -2.1267  -2.1251  -2.1037
    -2.0923  -2.0827  -2.0739  -2.0547  -2.0457  -2.0391  -2.0312  -2.0257
    -2.0231  -2.0125  -2.0047  -2.0025  -1.9811  -1.9738  -1.9622  -1.9495
    -1.9008  -1.6362  -1.5837  -1.5127  -1.4595  -1.4483  -1.4039  -1.3880
    -1.3083  -1.2764  -1.2425  -1.2349  -1.2244  -1.1959  -1.1726  -1.1119
    -1.0887  -1.0731  -1.0511  -1.0393  -0.9849  -0.9407  -0.9271  -0.9181
    -0.8735  -0.8338  -0.7800  -0.6915   0.6405   0.6582   0.6607   0.6958
     0.8084   0.8212   0.8270   0.8315   0.8493   0.8649   0.8668   0.8757
     0.9113   0.9236   0.9334   0.9364   0.9471   0.9485   0.9530   0.9563
     0.9604   0.9646   0.9725   0.9741   0.9795   0.9829   0.9848   0.9929
     0.9949   1.0004   1.0063   1.0095   1.0150   1.0183   1.0248   1.0267
     1.0336   1.0373   1.0495   1.0520   1.0575   1.0598   1.0642   1.0768
     1.0806   1.0881   1.0930   1.0989   1.1069   1.1133   1.1237   1.1371
     1.1414   1.1467   1.1542   1.1742   1.1824   1.1945   1.2114   1.2450
     1.7078   1.7240   1.7338   1.7473   1.7485   1.7666   1.7847   1.7971
     1.7984   1.8362   1.8512   1.9303   1.9415   1.9473   1.9637   1.9850
     2.0015   2.0166   2.0226   2.0435   2.0534   2.0783   2.0895   2.1075
     2.1283   2.1606   2.1666   2.1809   2.9106   2.9526   2.9684   2.9909
     2.9924   3.0246   3.0968   3.1533   3.4973   3.5096   3.5214   3.5295
     3.5318   3.5380   3.5502   3.5591   3.5749   3.5837   3.5989   3.6056
     3.6169   3.6339   3.6558   3.6736   3.7438   3.7558   3.7624   3.7655
     3.7725   3.7792   3.7865   3.7896   3.7938   3.8004   3.8084   3.8121
     3.8194   3.8356   3.8397   3.8541   3.8948   3.9105   3.9186   3.9282
     3.9844   3.9937   4.0048   4.0087   4.0276   4.0322   4.0507   4.0554
     4.0637   4.0692   4.0758   4.0848   4.0883   4.0910   4.1038   4.1072
     4.1196   4.1305   4.1497   4.1528   4.3977   4.4126   4.4299   4.4575
     4.4647   4.4983   4.5047   4.5068   4.5626   4.5769   4.5803   4.5929
     4.5979   4.6076   4.6089   4.6159   4.6259   4.6347   4.6416   4.6450
     4.6501   4.6609   4.6677   4.6731   4.6758   4.6837   4.6913   4.6919
     4.7072   4.7141   4.7292   4.7446   4.7822   4.8021   4.8160   4.8278
     4.8654   4.8848   4.8872   4.9000   4.9086   4.9217   4.9266   4.9376
     4.9520   4.9594   4.9636   4.9723   4.9852   4.9963   5.0171   5.0184
     5.0295   5.0393   5.0466   5.0521   5.0583   5.0787   5.0895   5.0942
     5.1028   5.1120   5.1150   5.1238   5.1354   5.1429   5.1594   5.1681
     5.1765   5.1858   5.1912   5.2152   5.2226   5.2336   5.2373   5.2415
     5.2563   5.2638   5.2741   5.2829   5.2945   5.3045   5.3158   5.3257
     5.3279   5.3735   5.3981   5.3993   5.4254   5.4353   5.4461   5.4524
     5.4622   5.4700   5.4770   5.4901   5.4938   5.5055   5.5063   5.5258
     5.5315   5.5438   5.5693   5.5758   5.5847   5.6009   5.6026   5.6141
     5.6245   5.6445   5.6603   5.6795   5.7283   5.7604   5.7689   5.7884
     5.8133   5.8391   5.8587   5.8834   5.9227   5.9334   5.9420   5.9509
     5.9596   5.9746   5.9854   5.9946   6.0111   6.0294   6.0343   6.0401
     6.0620   6.0761   6.0794   6.0812   6.0894   6.0982   6.1105   6.1245
     6.1266   6.1423   6.1487   6.1614   6.1856   6.2120   6.2358   6.2588
     6.2838   6.2943   6.3192   6.3258   6.3426   6.3564   6.3677   6.3824
     6.3903   6.4034   6.4225   6.4385   6.4537   6.4760   6.5066   6.5149
     6.5674   6.6071   6.6161   6.7079   6.9756   7.0225   7.0464   7.0841
     8.7027   8.7280   8.7431   8.7919   8.8472   8.8537   8.8703   8.9134
     8.9407   8.9881   8.9941   9.0195   9.1583   9.1688   9.1956   9.2264
     9.2325   9.2517   9.2752   9.2933   9.4515   9.4643   9.4858   9.5010
     9.5206   9.5395   9.5474   9.5539   9.5683   9.5867   9.5946   9.6091
     9.6210   9.6242   9.6418   9.6440   9.6559   9.6675   9.6746   9.6786
     9.6840   9.6996   9.7070   9.7205   9.7235   9.7347   9.7437   9.7562
     9.7581   9.7756   9.7800   9.7846   9.7948   9.8021   9.8342   9.8621
     9.9066   9.9172   9.9263   9.9339   9.9419   9.9436   9.9649   9.9665
     9.9730   9.9782   9.9805   9.9866   9.9882   9.9986  10.0071  10.0102
    10.0138  10.0195  10.0285  10.0350  10.0456  10.0501  10.0553  10.0642
    10.0687  10.0768  10.0874  10.0922  10.1005  10.1021  10.1092  10.1156
    10.1178  10.1260  10.1357  10.1464  10.1578  10.1599  10.1646  10.1839
    10.1914  10.1937  10.1944  10.2089  10.2145  10.2399  10.2490  10.2760
    10.2866  10.2911  10.3059  10.3146  10.4995  10.5202  10.5498  10.5752
    10.5829  10.5889  10.6331  10.6418  10.6645  10.6708  10.6994  10.7420
    10.8578  10.8643  10.8763  10.8970  10.9037  10.9206  10.9244  10.9430
    10.9447  10.9543  10.9925  10.9996  11.0198  11.0265  11.0570  11.0675
    11.2564  11.2698  11.2868  11.3032  11.3109  11.3300  11.3384  11.3534
    11.3686  11.3781  11.3987  11.4043  11.5217  11.5334  11.5411  11.5459
    11.5533  11.5744  11.5820  11.5926  11.6006  11.6072  11.6084  11.6161
    11.6295  11.6343  11.6441  11.6469  11.6498  11.6630  11.6674  11.6798
    11.6831  11.6850  11.6943  11.7031  11.7094  11.7208  11.7252  11.7318
    11.7393  11.7498  11.7565  11.7645  11.7696  11.7760  11.7852  11.7999
    11.8099  11.8164  11.8251  11.8351  11.8380  11.8466  11.8509  11.8614
    11.8657  11.8761  11.8844  11.8914  11.8997  11.9108  11.9253  11.9467
    11.9632  11.9853  11.9918  12.0110  12.0246  12.0460  12.0510  12.0651
    12.0806  12.0926  12.1103  12.1261  12.1423  12.1561  12.1712  12.1971
    12.2164  12.2248  12.2371  12.2603  12.2767  12.2871  12.2915  12.3035
    12.3055  12.3196  12.3261  12.3276  12.3910  12.3963  12.4178  12.4342
    12.4395  12.4529  12.4639  12.4730  12.4846  12.4886  12.4940  12.4972
    12.5027  12.5064  12.5149  12.5241  12.5420  12.5475  12.5570  12.5595
    12.5901  12.6018  12.6275  12.6285  12.6467  12.6516  12.6549  12.6895
    12.6907  12.7040  12.7225  12.7278  12.7364  12.7405  12.7452  12.7612
    12.7665  12.7795  12.7870  12.7949  12.7978  12.8085  12.8144  12.8170
    12.8807  12.8858  12.8928  12.9079  12.9112  12.9226  12.9314  12.9359
    12.9418  12.9512  12.9746  13.0061  13.0113  13.0229  13.0384  13.0437
    13.0706  13.0886  13.1075  13.1099  13.1200  13.1264  13.1374  13.1432
    13.1470  13.1582  13.1630  13.1655  13.1846  13.1923  13.1971  13.2034
    13.2098  13.2172  13.2217  13.2277  13.2290  13.2355  13.2381  13.2444
    13.2530  13.2579  13.2690  13.2769  13.2866  13.2955  13.3007  13.3038
    13.3168  13.3244  13.3275  13.3413  13.3470  13.3503  13.3568  13.3633
    13.3759  13.3843  13.3907  13.3998  13.4047  13.4131  13.4185  13.4249
    13.4399  13.4486  13.4547  13.4831  13.4906  13.4964  13.5391  13.5462
    13.5655  13.5983  13.6110  13.6300  13.6377  13.6775  13.6997  13.7283
    14.0875  14.0936  14.1082  14.1211  14.1350  14.1438  14.1555  14.1707
    14.1744  14.1840  14.1910  14.1965  14.2071  14.2230  14.2361  14.2379
    14.2559  14.2606  14.2747  14.2911  14.3035  14.3084  14.3188  14.3330
    14.3451  14.3501  14.3585  14.3614  14.3710  14.3781  14.3955  14.4271
    14.4644  14.4771  14.5116  14.5432  14.5668  14.5774  14.5805  14.5997
    14.6152  14.6228  14.6395  14.6443  14.6479  14.6777  14.6806  14.7229
    14.7370  14.7628  14.7856  14.7871  14.8044  14.8097  14.8166  14.8352
    14.8362  14.8459  14.8546  14.8714  14.8884  14.8986  14.9107  14.9465
    14.9615  14.9775  14.9943  15.0284  15.0398  15.0470  15.0975  15.1037
    15.1142  15.1353  15.1481  15.1594  15.1749  15.1793  15.1834  15.1956
    15.2758  15.3098  15.3121  15.3245  15.4353  15.4754  15.4911  15.5059
    15.5177  15.5237  15.5310  15.5386  15.5478  15.5503  15.5756  15.5850
    15.5950  15.6124  15.6299  15.6321  15.6374  15.6418  15.6487  15.6549
    15.6605  15.6719  15.6785  15.6903  15.6979  15.7055  15.7151  15.7199
    15.7236  15.7308  15.7390  15.7424  15.7496  15.7549  15.7675  15.7690
    15.7755  15.7857  15.7886  15.7983  15.8047  15.8104  15.8210  15.8261
    15.8287  15.8388  15.8444  15.8558  15.8567  15.8592  15.8776  15.8881
    15.8917  15.9093  15.9210  15.9303  15.9377  15.9510  15.9574  15.9750
    15.9874  15.9972  16.0057  16.0120  16.0216  16.0417  16.0432  16.0654
    16.0800  16.0875  16.1087  16.1129  16.1283  16.1480  16.1565  16.1628
    16.1780  16.1829  16.2047  16.2054  16.2188  16.2295  16.2332  16.2402
    16.2535  16.2660  16.2673  16.2746  16.2796  16.2875  16.2935  16.3053
    16.3152  16.3239  16.3296  16.3364  16.3420  16.3599  16.3792  16.3986
    16.4054  16.4233  16.4277  16.4350  16.4715  16.4803  16.5056  16.5144
    16.5335  16.5459  16.5516  16.5694  16.5780  16.5949  16.6012  16.6190
    16.6262  16.6342  16.6452  16.6494  16.6574  16.6685  16.6705  16.6869
    16.6956  16.7088  16.7125  16.7259  16.7286  16.7442  16.7594  16.7622
    16.7697  16.7750  16.7807  16.7881  16.7929  16.8005  16.8027  16.8139
    16.8281  16.8306  16.8405  16.8586  17.0159  17.0573  17.0599  17.0826
    17.0845  17.0970  17.1111  17.1171  17.1269  17.1355  17.1493  17.1530
    17.1579  17.1604  17.1710  17.1734  17.1871  17.1986  17.2012  17.2106
    17.2171  17.2236  17.2284  17.2325  17.2468  17.2529  17.2599  17.2741
    17.4849  17.4927  17.4978  17.5184  17.5649  17.5741  17.5897  17.6019
    17.7031  17.7238  17.7313  17.7387  17.7547  17.7670  17.7828  17.8081
    17.8225  17.8333  17.8366  17.8473  17.8491  17.8615  17.8714  17.8831
    17.8892  17.8956  17.9066  17.9196  17.9282  17.9359  17.9433  17.9506
    17.9617  17.9695  17.9784  17.9903  17.9929  18.0010  18.0087  18.0179

     highest occupied, lowest unoccupied level (ev):     7.1540    7.4111

!    total energy              =  -36448.27244193 Ry
     estimated scf accuracy    <       0.00000394 Ry

     The total energy is the sum of the following terms:
     one-electron contribution =  -18591.83761510 Ry
     hartree contribution      =   11046.16558545 Ry
     xc contribution           =   -9410.68429444 Ry
     ewald contribution        =  -19494.11242088 Ry
     Hubbard energy            =       2.19630304 Ry

     convergence has been achieved in  12 iterations

     Writing all to output data dir ./tmp_In1.0Ga0.0As0.75Sb0.25_cube_3x3x3.0/In1.0Ga0.0As0.75Sb0.25_cube_3x3x3.0.save/ :
     XML data file, charge density, pseudopotentials, collected wavefunctions

     init_run     :    264.27s CPU    267.27s WALL (       1 calls)
     electrons    :  10241.00s CPU  10267.69s WALL (       1 calls)

     Called by init_run:
     wfcinit      :    253.78s CPU    256.35s WALL (       1 calls)
     potinit      :      2.31s CPU      2.37s WALL (       1 calls)
     hinit0       :      0.68s CPU      0.74s WALL (       1 calls)

     Called by electrons:
     c_bands      :   9828.69s CPU   9853.27s WALL (      13 calls)
     sum_band     :    405.35s CPU    406.20s WALL (      13 calls)
     v_of_rho     :      4.96s CPU      5.20s WALL (      13 calls)
     mix_rho      :      0.99s CPU      1.06s WALL (      13 calls)

     Called by c_bands:
     init_us_2    :     37.13s CPU     37.75s WALL (      28 calls)
     cegterg      :   9513.14s CPU   9536.30s WALL (      13 calls)

     Called by *egterg:
     cdiaghg      :    877.16s CPU    878.21s WALL (     119 calls)
     h_psi        :   5721.09s CPU   5733.74s WALL (     121 calls)
     g_psi        :      4.66s CPU      4.66s WALL (     107 calls)

     Called by h_psi:
     h_psi:calbec :    897.07s CPU    897.12s WALL (     121 calls)
     vloc_psi     :   1114.76s CPU   1117.26s WALL (     121 calls)
     add_vuspsi   :    882.39s CPU    885.73s WALL (     121 calls)
     vhpsi        :   2817.43s CPU   2817.65s WALL (     121 calls)

     General routines
     calbec       :   1133.03s CPU   1133.11s WALL (     256 calls)
     fft          :      3.27s CPU      3.53s WALL (     131 calls)
     ffts         :      0.25s CPU      0.26s WALL (      13 calls)
     fftw         :   1180.24s CPU   1182.91s WALL (  163188 calls)

     Parallel routines

     Hubbard U routines
     new_ns       :     62.14s CPU     62.16s WALL (      13 calls)
     vhpsi        :   2817.43s CPU   2817.65s WALL (     121 calls)

     PWSCF        :      2h55m CPU      2h58m WALL


   This run was terminated on:  19:21: 8  27Jan2026            

=------------------------------------------------------------------------------=
   JOB DONE.
=------------------------------------------------------------------------------=
