
     Program PWSCF v.7.3.1 starts on  8Apr2026 at 12:58:57 

     This program is part of the open-source Quantum ESPRESSO suite
     for quantum simulation of materials; please cite
         "P. Giannozzi et al., J. Phys.:Condens. Matter 21 395502 (2009);
         "P. Giannozzi et al., J. Phys.:Condens. Matter 29 465901 (2017);
         "P. Giannozzi et al., J. Chem. Phys. 152 154105 (2020);
          URL http://www.quantum-espresso.org", 
     in publications or presentations arising from this work. More details at
     http://www.quantum-espresso.org/quote

     Parallel version (MPI), running on   640 processors

     MPI processes distributed on     5 nodes
     480527 MiB available memory on the printing compute node when the environment starts

     Reading input from In1.0Ga0.0As0.25Sb0.75_cube_3x3x3.8.scf.in
Warning: card &CELL ignored
Warning: card   CELL_DOFREE = 'ALL', ignored
Warning: card / ignored

     Current dimensions of program PWSCF are:
     Max number of different atomic species (ntypx) = 10
     Max number of k-points (npk) =  40000
     Max angular momentum in pseudopotentials (lmaxx) =  4

     K-points division:     npool     =       5
     R & G space division:  proc/nbgrp/npool/nimage =     128
     Subspace diagonalization in iterative solution of the eigenvalue problem:
     one sub-group per band group will be used
     custom distributed-memory algorithm (size of sub-group: 11* 11 procs)


     Parallelization info
     --------------------
     sticks:   dense  smooth     PW     G-vecs:    dense   smooth      PW
     Min         394     394    101                66818    66818    8701
     Max         395     395    102                66831    66831    8708
     Sum       50557   50557  12989              8553657  8553657 1114005

     Using Slab Decomposition



     bravais-lattice index     =            1
     lattice parameter (alat)  =      36.3856  a.u.
     unit-cell volume          =   48171.2570 (a.u.)^3
     number of atoms/cell      =          216
     number of atomic types    =            4
     number of electrons       =      3024.00
     number of Kohn-Sham states=         2160
     kinetic-energy cutoff     =     120.0000  Ry
     charge density cutoff     =     480.0000  Ry
     scf convergence threshold =      1.0E-05
     mixing beta               =       0.6500
     number of iterations used =            8  plain     mixing
     Exchange-correlation= PBE
                           (   1   4   3   4   0   0   0)
     Hubbard projectors: atomic
     Hubbard parameters of DFT+U (Dudarev formulation) in eV:
     U(As-4p) =  3.2600
     U(Ga-4p) = -2.3350
     U(In-5p) = -1.0575
     U(Sb-5p) =  3.1600

     Internal variables: lda_plus_u =T, lda_plus_u_kind = 0

     celldm(1)=  36.385582  celldm(2)=   0.000000  celldm(3)=   0.000000
     celldm(4)=   0.000000  celldm(5)=   0.000000  celldm(6)=   0.000000

     crystal axes: (cart. coord. in units of alat)
               a(1) = (   1.000000   0.000000   0.000000 )  
               a(2) = (   0.000000   1.000000   0.000000 )  
               a(3) = (   0.000000   0.000000   1.000000 )  

     reciprocal axes: (cart. coord. in units 2 pi/alat)
               b(1) = (  1.000000  0.000000  0.000000 )  
               b(2) = (  0.000000  1.000000  0.000000 )  
               b(3) = (  0.000000  0.000000  1.000000 )  


     PseudoPot. # 1 for As read from file:
     /work/i254/i254/gentles/data/pseudos/As.pbe.NC-SR.standard.v0.5.UPF
     MD5 check sum: bfe1a874457ce592347346129958e7cf
     Pseudo is Norm-conserving + core correction, Zval = 15.0
     Generated using ONCVPSP code by D. R. Hamann
     Using radial grid of 1358 points,  6 beta functions with: 
                l(1) =   0
                l(2) =   0
                l(3) =   1
                l(4) =   1
                l(5) =   2
                l(6) =   2

     PseudoPot. # 2 for Ga read from file:
     /work/i254/i254/gentles/data/pseudos/Ga.pbe.NC-SR.standard.v0.5.UPF
     MD5 check sum: 2bb81bf6f0a8d9832cf3329850435ecf
     Pseudo is Norm-conserving + core correction, Zval = 13.0
     Generated using ONCVPSP code by D. R. Hamann
     Using radial grid of 1902 points,  6 beta functions with: 
                l(1) =   0
                l(2) =   0
                l(3) =   1
                l(4) =   1
                l(5) =   2
                l(6) =   2

     PseudoPot. # 3 for In read from file:
     /work/i254/i254/gentles/data/pseudos/In.pbe.NC-SR.standard.v0.5.UPF
     MD5 check sum: 835f4bf908c982ff75c88e16816a8d7f
     Pseudo is Norm-conserving + core correction, Zval = 13.0
     Generated using ONCVPSP code by D. R. Hamann
     Using radial grid of 1964 points,  6 beta functions with: 
                l(1) =   0
                l(2) =   0
                l(3) =   1
                l(4) =   1
                l(5) =   2
                l(6) =   2

     PseudoPot. # 4 for Sb read from file:
     /work/i254/i254/gentles/data/pseudos/Sb.pbe.NC-SR.standard.v0.5.UPF
     MD5 check sum: 127f69b6101c45666faeae1b5d611565
     Pseudo is Norm-conserving + core correction, Zval = 15.0
     Generated using ONCVPSP code by D. R. Hamann
     Using radial grid of 1434 points,  6 beta functions with: 
                l(1) =   0
                l(2) =   0
                l(3) =   1
                l(4) =   1
                l(5) =   2
                l(6) =   2

     atomic species   valence    mass     pseudopotential
     As               15.00    74.92160     As( 1.00)
     Ga               13.00    69.72300     Ga( 1.00)
     In               13.00   114.81800     In( 1.00)
     Sb               15.00   121.76000     Sb( 1.00)

     No symmetry found



   Cartesian axes

     site n.     atom                  positions (alat units)
         1        In     tau(   1) = (  -0.0105140  -0.0018570   0.0012570  )
         2        In     tau(   2) = (  -0.0000080   0.1667170   0.1642960  )
         3        In     tau(   3) = (   0.1641570  -0.0023120   0.1661660  )
         4        In     tau(   4) = (   0.1681310   0.1646170  -0.0040840  )
         5        Sb     tau(   5) = (   0.0811860   0.0810940   0.0798070  )
         6        Sb     tau(   6) = (   0.0826010   0.2511990   0.2503720  )
         7        Sb     tau(   7) = (   0.2495090   0.0828640   0.2486670  )
         8        Sb     tau(   8) = (   0.2495230   0.2514010   0.0821920  )
         9        In     tau(   9) = (  -0.0056690  -0.0053510   0.3374690  )
        10        In     tau(  10) = (   0.0017590   0.1682240   0.5017840  )
        11        In     tau(  11) = (   0.1636780  -0.0043180   0.5051710  )
        12        In     tau(  12) = (   0.1651950   0.1654020   0.3347410  )
        13        Sb     tau(  13) = (   0.0816530   0.0797340   0.4184930  )
        14        Sb     tau(  14) = (   0.0854020   0.2529770   0.5871150  )
        15        Sb     tau(  15) = (   0.2476580   0.0839720   0.5863130  )
        16        Sb     tau(  16) = (   0.2498360   0.2527990   0.4159720  )
        17        In     tau(  17) = (   0.0051020  -0.0036820   0.6627500  )
        18        In     tau(  18) = (  -0.0046980   0.1607390   0.8369020  )
        19        In     tau(  19) = (   0.1693240   0.0038490   0.8386090  )
        20        In     tau(  20) = (   0.1698860   0.1725190   0.6738840  )
        21        Sb     tau(  21) = (   0.0842190   0.0828640   0.7511440  )
        22        Sb     tau(  22) = (   0.0838610   0.2510560   0.9126120  )
        23        As     tau(  23) = (   0.2495170   0.0862960   0.9153540  )
        24        As     tau(  24) = (   0.2485040   0.2544630   0.7522730  )
        25        In     tau(  25) = (  -0.0016960   0.3372710  -0.0051760  )
        26        In     tau(  26) = (   0.0008070   0.5028910   0.1672030  )
        27        In     tau(  27) = (   0.1693300   0.3377040   0.1700880  )
        28        In     tau(  28) = (   0.1701060   0.4957740  -0.0061900  )
        29        Sb     tau(  29) = (   0.0840220   0.4179580   0.0821070  )
        30        Sb     tau(  30) = (   0.0858130   0.5851140   0.2526340  )
        31        As     tau(  31) = (   0.2500040   0.4192190   0.2497000  )
        32        Sb     tau(  32) = (   0.2512830   0.5819120   0.0796760  )
        33        In     tau(  33) = (  -0.0002220   0.3359210   0.3353430  )
        34        In     tau(  34) = (  -0.0021350   0.5005740   0.4985620  )
        35        In     tau(  35) = (   0.1702310   0.3382230   0.5049740  )
        36        In     tau(  36) = (   0.1752370   0.5019570   0.3331130  )
        37        Sb     tau(  37) = (   0.0873410   0.4196250   0.4166890  )
        38        Sb     tau(  38) = (   0.0839840   0.5817360   0.5832480  )
        39        As     tau(  39) = (   0.2476580   0.4175760   0.5867810  )
        40        As     tau(  40) = (   0.2488140   0.5836780   0.4181700  )
        41        In     tau(  41) = (   0.0043380   0.3366090   0.6746330  )
        42        In     tau(  42) = (  -0.0017110   0.4958560   0.8290530  )
        43        In     tau(  43) = (   0.1692100   0.3383040   0.8297300  )
        44        In     tau(  44) = (   0.1652500   0.4938640   0.6683610  )
        45        As     tau(  45) = (   0.0847200   0.4174620   0.7519420  )
        46        Sb     tau(  46) = (   0.0827560   0.5810510   0.9137470  )
        47        As     tau(  47) = (   0.2498920   0.4174090   0.9130590  )
        48        Sb     tau(  48) = (   0.2493450   0.5806850   0.7528130  )
        49        In     tau(  49) = (   0.0000000   0.6646030   0.0000210  )
        50        In     tau(  50) = (  -0.0057890   0.8371760   0.1609160  )
        51        In     tau(  51) = (   0.1677680   0.6664020   0.1651030  )
        52        In     tau(  52) = (   0.1706430   0.8286520  -0.0039880  )
        53        Sb     tau(  53) = (   0.0830070   0.7508340   0.0822880  )
        54        Sb     tau(  54) = (   0.0795280   0.9140380   0.2508180  )
        55        Sb     tau(  55) = (   0.2508410   0.7478590   0.2526920  )
        56        Sb     tau(  56) = (   0.2503100   0.9171790   0.0802170  )
        57        In     tau(  57) = (   0.0030400   0.6733780   0.3355770  )
        58        In     tau(  58) = (   0.0027230   0.8342760   0.4967220  )
        59        In     tau(  59) = (   0.1647550   0.6660130   0.4933580  )
        60        In     tau(  60) = (   0.1617890   0.8280850   0.3358520  )
        61        As     tau(  61) = (   0.0826400   0.7505830   0.4181260  )
        62        As     tau(  62) = (   0.0809560   0.9147820   0.5801080  )
        63        Sb     tau(  63) = (   0.2492920   0.7494250   0.5798630  )
        64        Sb     tau(  64) = (   0.2483500   0.9136360   0.4173730  )
        65        In     tau(  65) = (  -0.0025970   0.6613230   0.6699180  )
        66        In     tau(  66) = (   0.0003360   0.8338140   0.8346560  )
        67        In     tau(  67) = (   0.1696450   0.6701010   0.8359850  )
        68        In     tau(  68) = (   0.1613410   0.8359190   0.6605260  )
        69        Sb     tau(  69) = (   0.0828300   0.7497170   0.7492560  )
        70        Sb     tau(  70) = (   0.0828010   0.9179400   0.9196920  )
        71        As     tau(  71) = (   0.2511540   0.7472900   0.9174090  )
        72        Sb     tau(  72) = (   0.2468080   0.9147970   0.7514170  )
        73        In     tau(  73) = (   0.3306660   0.0056630  -0.0054150  )
        74        In     tau(  74) = (   0.3350920   0.1668720   0.1655340  )
        75        In     tau(  75) = (   0.5041090  -0.0078970   0.1614850  )
        76        In     tau(  76) = (   0.5024230   0.1710850   0.0028950  )
        77        Sb     tau(  77) = (   0.4189690   0.0818170   0.0822620  )
        78        Sb     tau(  78) = (   0.4195260   0.2525440   0.2474390  )
        79        Sb     tau(  79) = (   0.5843150   0.0810950   0.2452460  )
        80        As     tau(  80) = (   0.5850110   0.2497910   0.0806480  )
        81        In     tau(  81) = (   0.3328520  -0.0027770   0.3321890  )
        82        In     tau(  82) = (   0.3324760   0.1661250   0.4997010  )
        83        In     tau(  83) = (   0.5038860  -0.0019280   0.4982060  )
        84        In     tau(  84) = (   0.5012030   0.1651660   0.3320700  )
        85        Sb     tau(  85) = (   0.4168960   0.0815840   0.4162470  )
        86        Sb     tau(  86) = (   0.4132110   0.2515590   0.5860850  )
        87        Sb     tau(  87) = (   0.5848760   0.0837320   0.5845870  )
        88        Sb     tau(  88) = (   0.5840850   0.2496360   0.4182080  )
        89        In     tau(  89) = (   0.3327550  -0.0025060   0.6667730  )
        90        In     tau(  90) = (   0.3249740   0.1695160   0.8333010  )
        91        In     tau(  91) = (   0.4991320   0.0017130   0.8345260  )
        92        In     tau(  92) = (   0.4994090   0.1673090   0.6687020  )
        93        Sb     tau(  93) = (   0.4127250   0.0847240   0.7515770  )
        94        Sb     tau(  94) = (   0.4143630   0.2504880   0.9162430  )
        95        Sb     tau(  95) = (   0.5848150   0.0842410   0.9198150  )
        96        Sb     tau(  96) = (   0.5870540   0.2502180   0.7509050  )
        97        In     tau(  97) = (   0.3283060   0.3383180  -0.0053790  )
        98        In     tau(  98) = (   0.3310240   0.4982400   0.1698810  )
        99        In     tau(  99) = (   0.5056460   0.3315500   0.1586900  )
       100        In     tau( 100) = (   0.4967170   0.5064940  -0.0009640  )
       101        Sb     tau( 101) = (   0.4153390   0.4178260   0.0816080  )
       102        Sb     tau( 102) = (   0.4157770   0.5856610   0.2518200  )
       103        Sb     tau( 103) = (   0.5845370   0.4181010   0.2468550  )
       104        Sb     tau( 104) = (   0.5854330   0.5882890   0.0830100  )
       105        In     tau( 105) = (   0.3306840   0.3379070   0.3274700  )
       106        In     tau( 106) = (   0.3226650   0.5006670   0.5027470  )
       107        In     tau( 107) = (   0.4969770   0.3344290   0.5001470  )
       108        In     tau( 108) = (   0.5001930   0.5006330   0.3332090  )
       109        Sb     tau( 109) = (   0.4116290   0.4197980   0.4173540  )
       110        Sb     tau( 110) = (   0.4141420   0.5834920   0.5805790  )
       111        Sb     tau( 111) = (   0.5840650   0.4166830   0.5840130  )
       112        Sb     tau( 112) = (   0.5857120   0.5878970   0.4132610  )
       113        In     tau( 113) = (   0.3247480   0.3347940   0.6681200  )
       114        In     tau( 114) = (   0.3345060   0.5017480   0.8415390  )
       115        In     tau( 115) = (   0.4993370   0.3337720   0.8318500  )
       116        In     tau( 116) = (   0.4978400   0.5006680   0.6672920  )
       117        Sb     tau( 117) = (   0.4123790   0.4176750   0.7511590  )
       118        As     tau( 118) = (   0.4165010   0.5848570   0.9179590  )
       119        Sb     tau( 119) = (   0.5816340   0.4159330   0.9196560  )
       120        Sb     tau( 120) = (   0.5807280   0.5842810   0.7536860  )
       121        In     tau( 121) = (   0.3352260   0.6664540  -0.0054710  )
       122        In     tau( 122) = (   0.3331990   0.8324990   0.1654190  )
       123        In     tau( 123) = (   0.5045170   0.6710990   0.1714060  )
       124        In     tau( 124) = (   0.5080020   0.8336040   0.0016620  )
       125        Sb     tau( 125) = (   0.4193980   0.7495920   0.0818560  )
       126        Sb     tau( 126) = (   0.4194370   0.9124100   0.2498780  )
       127        As     tau( 127) = (   0.5870240   0.7509280   0.2495650  )
       128        As     tau( 128) = (   0.5867870   0.9115090   0.0853110  )
       129        In     tau( 129) = (   0.3328630   0.6649930   0.3420920  )
       130        In     tau( 130) = (   0.3384530   0.8283660   0.4944890  )
       131        In     tau( 131) = (   0.4958160   0.6694040   0.4947260  )
       132        In     tau( 132) = (   0.5012080   0.8231360   0.3319370  )
       133        As     tau( 133) = (   0.4171350   0.7479570   0.4140530  )
       134        Sb     tau( 134) = (   0.4178230   0.9147330   0.5816640  )
       135        Sb     tau( 135) = (   0.5824660   0.7494390   0.5807630  )
       136        Sb     tau( 136) = (   0.5853320   0.9123790   0.4117920  )
       137        In     tau( 137) = (   0.3318520   0.6656410   0.6679190  )
       138        In     tau( 138) = (   0.3291200   0.8288170   0.8373360  )
       139        In     tau( 139) = (   0.5003490   0.6671190   0.8436280  )
       140        In     tau( 140) = (   0.5005590   0.8325720   0.6684290  )
       141        Sb     tau( 141) = (   0.4169280   0.7478970   0.7540080  )
       142        Sb     tau( 142) = (   0.4168920   0.9151370   0.9182840  )
       143        As     tau( 143) = (   0.5839460   0.7500210   0.9203830  )
       144        Sb     tau( 144) = (   0.5847600   0.9153720   0.7532670  )
       145        In     tau( 145) = (   0.6628890  -0.0056300   0.0049700  )
       146        In     tau( 146) = (   0.6639410   0.1693910   0.1608230  )
       147        In     tau( 147) = (   0.8313460  -0.0084290   0.1669660  )
       148        In     tau( 148) = (   0.8320600   0.1644590  -0.0066310  )
       149        Sb     tau( 149) = (   0.7502240   0.0809540   0.0825190  )
       150        Sb     tau( 150) = (   0.7486880   0.2498560   0.2481750  )
       151        Sb     tau( 151) = (   0.9159650   0.0795000   0.2482420  )
       152        Sb     tau( 152) = (   0.9157940   0.2495900   0.0781330  )
       153        In     tau( 153) = (   0.6710800  -0.0047390   0.3260130  )
       154        In     tau( 154) = (   0.6719160   0.1684940   0.5032380  )
       155        In     tau( 155) = (   0.8397020  -0.0052910   0.4958110  )
       156        In     tau( 156) = (   0.8329360   0.1652130   0.3316290  )
       157        Sb     tau( 157) = (   0.7511760   0.0796790   0.4159700  )
       158        As     tau( 158) = (   0.7511340   0.2498420   0.5827650  )
       159        Sb     tau( 159) = (   0.9175790   0.0825350   0.5831980  )
       160        Sb     tau( 160) = (   0.9155200   0.2503460   0.4178680  )
       161        In     tau( 161) = (   0.6688790  -0.0012690   0.6681900  )
       162        In     tau( 162) = (   0.6720600   0.1704800   0.8391840  )
       163        In     tau( 163) = (   0.8366190   0.0027510   0.8378500  )
       164        In     tau( 164) = (   0.8314220   0.1707370   0.6634620  )
       165        Sb     tau( 165) = (   0.7521820   0.0853860   0.7518430  )
       166        As     tau( 166) = (   0.7512830   0.2505540   0.9196920  )
       167        As     tau( 167) = (   0.9150260   0.0821110   0.9186250  )
       168        Sb     tau( 168) = (   0.9151710   0.2504960   0.7537920  )
       169        In     tau( 169) = (   0.6669070   0.3270960   0.0005760  )
       170        In     tau( 170) = (   0.6710840   0.5058130   0.1678360  )
       171        In     tau( 171) = (   0.8339180   0.3330980   0.1649760  )
       172        In     tau( 172) = (   0.8379870   0.4959330  -0.0053340  )
       173        Sb     tau( 173) = (   0.7503140   0.4168560   0.0812120  )
       174        As     tau( 174) = (   0.7481010   0.5877740   0.2487050  )
       175        Sb     tau( 175) = (   0.9156370   0.4188930   0.2496530  )
       176        Sb     tau( 176) = (   0.9130100   0.5838990   0.0840490  )
       177        In     tau( 177) = (   0.6667480   0.3347100   0.3333140  )
       178        In     tau( 178) = (   0.6666970   0.5025920   0.5000520  )
       179        In     tau( 179) = (   0.8306000   0.3316890   0.5045300  )
       180        In     tau( 180) = (   0.8292770   0.5073010   0.3277170  )
       181        Sb     tau( 181) = (   0.7514240   0.4191690   0.4163730  )
       182        Sb     tau( 182) = (   0.7521500   0.5858600   0.5836040  )
       183        Sb     tau( 183) = (   0.9177940   0.4161900   0.5869180  )
       184        Sb     tau( 184) = (   0.9151880   0.5874640   0.4143560  )
       185        In     tau( 185) = (   0.6725110   0.3305430   0.6634850  )
       186        In     tau( 186) = (   0.6660690   0.4990590   0.8349160  )
       187        In     tau( 187) = (   0.8329540   0.3333560   0.8424810  )
       188        In     tau( 188) = (   0.8379540   0.5047370   0.6708140  )
       189        Sb     tau( 189) = (   0.7529470   0.4164690   0.7517600  )
       190        Sb     tau( 190) = (   0.7512000   0.5848300   0.9173380  )
       191        As     tau( 191) = (   0.9183330   0.4169780   0.9136650  )
       192        As     tau( 192) = (   0.9195220   0.5808470   0.7513820  )
       193        In     tau( 193) = (   0.6693540   0.6759360   0.0010470  )
       194        In     tau( 194) = (   0.6671450   0.8327850   0.1686780  )
       195        In     tau( 195) = (   0.8246080   0.6679050   0.1662420  )
       196        In     tau( 196) = (   0.8315300   0.8313000   0.0087170  )
       197        As     tau( 197) = (   0.7475270   0.7526670   0.0870740  )
       198        As     tau( 198) = (   0.7507500   0.9125290   0.2486880  )
       199        Sb     tau( 199) = (   0.9133320   0.7519240   0.2486830  )
       200        As     tau( 200) = (   0.9120720   0.9159930   0.0830110  )
       201        In     tau( 201) = (   0.6708560   0.6721900   0.3279770  )
       202        In     tau( 202) = (   0.6706460   0.8283680   0.4946010  )
       203        In     tau( 203) = (   0.8291230   0.6734990   0.4945480  )
       204        In     tau( 204) = (   0.8304580   0.8362550   0.3354400  )
       205        As     tau( 205) = (   0.7502360   0.7517050   0.4115450  )
       206        Sb     tau( 206) = (   0.7513530   0.9150840   0.5805280  )
       207        Sb     tau( 207) = (   0.9179420   0.7500650   0.5826060  )
       208        As     tau( 208) = (   0.9167480   0.9117190   0.4165110  )
       209        In     tau( 209) = (   0.6648040   0.6662000   0.6671350  )
       210        In     tau( 210) = (   0.6648060   0.8275490   0.8390760  )
       211        In     tau( 211) = (   0.8388530   0.6617120   0.8301620  )
       212        In     tau( 212) = (   0.8336390   0.8336910   0.6677620  )
       213        Sb     tau( 213) = (   0.7507410   0.7477710   0.7513910  )
       214        Sb     tau( 214) = (   0.7503860   0.9145620   0.9200220  )
       215        Sb     tau( 215) = (   0.9152750   0.7498780   0.9186610  )
       216        Sb     tau( 216) = (   0.9181090   0.9185220   0.7505810  )

     number of k points=     8
                       cart. coord. in units 2pi/alat
        k(    1) = (   0.0000000   0.0000000   0.0000000), wk =   0.2500000
        k(    2) = (   0.0000000   0.0000000  -0.5000000), wk =   0.2500000
        k(    3) = (   0.0000000  -0.5000000  -0.5000000), wk =   0.2500000
        k(    4) = (  -0.5000000  -0.5000000  -0.5000000), wk =   0.2500000
        k(    5) = (  -0.5000000   0.0000000   0.0000000), wk =   0.2500000
        k(    6) = (   0.0000000  -0.5000000   0.0000000), wk =   0.2500000
        k(    7) = (  -0.5000000   0.0000000   0.5000000), wk =   0.2500000
        k(    8) = (  -0.5000000   0.5000000   0.0000000), wk =   0.2500000

     Dense  grid:  8553657 G-vectors     FFT dimensions: ( 256, 256, 256)

     Estimated max dynamical RAM per process >       2.79 GB

     Estimated total dynamical RAM >    1776.78 GB

     Initial potential from superposition of free atoms

     starting charge    3023.5275, renormalised to    3024.0000

     STARTING HUBBARD OCCUPATIONS:

     =================== HUBBARD OCCUPATIONS ===================
     ------------------------ ATOM    1 ------------------------
     Tr[ns(  1)] =   1.00000
     eigenvalues:
       0.167  0.167  0.167
     eigenvectors (columns):
       1.000  0.000  0.000
       0.000  1.000  0.000
       0.000  0.000  1.000
     occupation matrix ns (before diag.):
       0.167  0.000  0.000
       0.000  0.167  0.000
       0.000  0.000  0.167
     ------------------------ ATOM    2 ------------------------
     Tr[ns(  2)] =   1.00000
     eigenvalues:
       0.167  0.167  0.167
     eigenvectors (columns):
       1.000  0.000  0.000
       0.000  1.000  0.000
       0.000  0.000  1.000
     occupation matrix ns (before diag.):
       0.167  0.000  0.000
       0.000  0.167  0.000
       0.000  0.000  0.167
     ------------------------ ATOM    3 ------------------------
     Tr[ns(  3)] =   1.00000
     eigenvalues:
       0.167  0.167  0.167
     eigenvectors (columns):
       1.000  0.000  0.000
       0.000  1.000  0.000
       0.000  0.000  1.000
     occupation matrix ns (before diag.):
       0.167  0.000  0.000
       0.000  0.167  0.000
       0.000  0.000  0.167
     ------------------------ ATOM    4 ------------------------
     Tr[ns(  4)] =   1.00000
     eigenvalues:
       0.167  0.167  0.167
     eigenvectors (columns):
       1.000  0.000  0.000
       0.000  1.000  0.000
       0.000  0.000  1.000
     occupation matrix ns (before diag.):
       0.167  0.000  0.000
       0.000  0.167  0.000
       0.000  0.000  0.167
     ------------------------ ATOM    5 ------------------------
     Tr[ns(  5)] =   3.00000
     eigenvalues:
       0.500  0.500  0.500
     eigenvectors (columns):
       1.000  0.000  0.000
       0.000  1.000  0.000
       0.000  0.000  1.000
     occupation matrix ns (before diag.):
       0.500  0.000  0.000
       0.000  0.500  0.000
       0.000  0.000  0.500
     ------------------------ ATOM    6 ------------------------
     Tr[ns(  6)] =   3.00000
     eigenvalues:
       0.500  0.500  0.500
     eigenvectors (columns):
       1.000  0.000  0.000
       0.000  1.000  0.000
       0.000  0.000  1.000
     occupation matrix ns (before diag.):
       0.500  0.000  0.000
       0.000  0.500  0.000
       0.000  0.000  0.500
     ------------------------ ATOM    7 ------------------------
     Tr[ns(  7)] =   3.00000
     eigenvalues:
       0.500  0.500  0.500
     eigenvectors (columns):
       1.000  0.000  0.000
       0.000  1.000  0.000
       0.000  0.000  1.000
     occupation matrix ns (before diag.):
       0.500  0.000  0.000
       0.000  0.500  0.000
       0.000  0.000  0.500
     ------------------------ ATOM    8 ------------------------
     Tr[ns(  8)] =   3.00000
     eigenvalues:
       0.500  0.500  0.500
     eigenvectors (columns):
       1.000  0.000  0.000
       0.000  1.000  0.000
       0.000  0.000  1.000
     occupation matrix ns (before diag.):
       0.500  0.000  0.000
       0.000  0.500  0.000
       0.000  0.000  0.500
     ------------------------ ATOM    9 ------------------------
     Tr[ns(  9)] =   1.00000
     eigenvalues:
       0.167  0.167  0.167
     eigenvectors (columns):
       1.000  0.000  0.000
       0.000  1.000  0.000
       0.000  0.000  1.000
     occupation matrix ns (before diag.):
       0.167  0.000  0.000
       0.000  0.167  0.000
       0.000  0.000  0.167
     ------------------------ ATOM   10 ------------------------
     Tr[ns( 10)] =   1.00000
     eigenvalues:
       0.167  0.167  0.167
     eigenvectors (columns):
       1.000  0.000  0.000
       0.000  1.000  0.000
       0.000  0.000  1.000
     occupation matrix ns (before diag.):
       0.167  0.000  0.000
       0.000  0.167  0.000
       0.000  0.000  0.167
     ------------------------ ATOM   11 ------------------------
     Tr[ns( 11)] =   1.00000
     eigenvalues:
       0.167  0.167  0.167
     eigenvectors (columns):
       1.000  0.000  0.000
       0.000  1.000  0.000
       0.000  0.000  1.000
     occupation matrix ns (before diag.):
       0.167  0.000  0.000
       0.000  0.167  0.000
       0.000  0.000  0.167
     ------------------------ ATOM   12 ------------------------
     Tr[ns( 12)] =   1.00000
     eigenvalues:
       0.167  0.167  0.167
     eigenvectors (columns):
       1.000  0.000  0.000
       0.000  1.000  0.000
       0.000  0.000  1.000
     occupation matrix ns (before diag.):
       0.167  0.000  0.000
       0.000  0.167  0.000
       0.000  0.000  0.167
     ------------------------ ATOM   13 ------------------------
     Tr[ns( 13)] =   3.00000
     eigenvalues:
       0.500  0.500  0.500
     eigenvectors (columns):
       1.000  0.000  0.000
       0.000  1.000  0.000
       0.000  0.000  1.000
     occupation matrix ns (before diag.):
       0.500  0.000  0.000
       0.000  0.500  0.000
       0.000  0.000  0.500
     ------------------------ ATOM   14 ------------------------
     Tr[ns( 14)] =   3.00000
     eigenvalues:
       0.500  0.500  0.500
     eigenvectors (columns):
       1.000  0.000  0.000
       0.000  1.000  0.000
       0.000  0.000  1.000
     occupation matrix ns (before diag.):
       0.500  0.000  0.000
       0.000  0.500  0.000
       0.000  0.000  0.500
     ------------------------ ATOM   15 ------------------------
     Tr[ns( 15)] =   3.00000
     eigenvalues:
       0.500  0.500  0.500
     eigenvectors (columns):
       1.000  0.000  0.000
       0.000  1.000  0.000
       0.000  0.000  1.000
     occupation matrix ns (before diag.):
       0.500  0.000  0.000
       0.000  0.500  0.000
       0.000  0.000  0.500
     ------------------------ ATOM   16 ------------------------
     Tr[ns( 16)] =   3.00000
     eigenvalues:
       0.500  0.500  0.500
     eigenvectors (columns):
       1.000  0.000  0.000
       0.000  1.000  0.000
       0.000  0.000  1.000
     occupation matrix ns (before diag.):
       0.500  0.000  0.000
       0.000  0.500  0.000
       0.000  0.000  0.500
     ------------------------ ATOM   17 ------------------------
     Tr[ns( 17)] =   1.00000
     eigenvalues:
       0.167  0.167  0.167
     eigenvectors (columns):
       1.000  0.000  0.000
       0.000  1.000  0.000
       0.000  0.000  1.000
     occupation matrix ns (before diag.):
       0.167  0.000  0.000
       0.000  0.167  0.000
       0.000  0.000  0.167
     ------------------------ ATOM   18 ------------------------
     Tr[ns( 18)] =   1.00000
     eigenvalues:
       0.167  0.167  0.167
     eigenvectors (columns):
       1.000  0.000  0.000
       0.000  1.000  0.000
       0.000  0.000  1.000
     occupation matrix ns (before diag.):
       0.167  0.000  0.000
       0.000  0.167  0.000
       0.000  0.000  0.167
     ------------------------ ATOM   19 ------------------------
     Tr[ns( 19)] =   1.00000
     eigenvalues:
       0.167  0.167  0.167
     eigenvectors (columns):
       1.000  0.000  0.000
       0.000  1.000  0.000
       0.000  0.000  1.000
     occupation matrix ns (before diag.):
       0.167  0.000  0.000
       0.000  0.167  0.000
       0.000  0.000  0.167
     ------------------------ ATOM   20 ------------------------
     Tr[ns( 20)] =   1.00000
     eigenvalues:
       0.167  0.167  0.167
     eigenvectors (columns):
       1.000  0.000  0.000
       0.000  1.000  0.000
       0.000  0.000  1.000
     occupation matrix ns (before diag.):
       0.167  0.000  0.000
       0.000  0.167  0.000
       0.000  0.000  0.167
     ------------------------ ATOM   21 ------------------------
     Tr[ns( 21)] =   3.00000
     eigenvalues:
       0.500  0.500  0.500
     eigenvectors (columns):
       1.000  0.000  0.000
       0.000  1.000  0.000
       0.000  0.000  1.000
     occupation matrix ns (before diag.):
       0.500  0.000  0.000
       0.000  0.500  0.000
       0.000  0.000  0.500
     ------------------------ ATOM   22 ------------------------
     Tr[ns( 22)] =   3.00000
     eigenvalues:
       0.500  0.500  0.500
     eigenvectors (columns):
       1.000  0.000  0.000
       0.000  1.000  0.000
       0.000  0.000  1.000
     occupation matrix ns (before diag.):
       0.500  0.000  0.000
       0.000  0.500  0.000
       0.000  0.000  0.500
     ------------------------ ATOM   23 ------------------------
     Tr[ns( 23)] =   3.00000
     eigenvalues:
       0.500  0.500  0.500
     eigenvectors (columns):
       1.000  0.000  0.000
       0.000  1.000  0.000
       0.000  0.000  1.000
     occupation matrix ns (before diag.):
       0.500  0.000  0.000
       0.000  0.500  0.000
       0.000  0.000  0.500
     ------------------------ ATOM   24 ------------------------
     Tr[ns( 24)] =   3.00000
     eigenvalues:
       0.500  0.500  0.500
     eigenvectors (columns):
       1.000  0.000  0.000
       0.000  1.000  0.000
       0.000  0.000  1.000
     occupation matrix ns (before diag.):
       0.500  0.000  0.000
       0.000  0.500  0.000
       0.000  0.000  0.500
     ------------------------ ATOM   25 ------------------------
     Tr[ns( 25)] =   1.00000
     eigenvalues:
       0.167  0.167  0.167
     eigenvectors (columns):
       1.000  0.000  0.000
       0.000  1.000  0.000
       0.000  0.000  1.000
     occupation matrix ns (before diag.):
       0.167  0.000  0.000
       0.000  0.167  0.000
       0.000  0.000  0.167
     ------------------------ ATOM   26 ------------------------
     Tr[ns( 26)] =   1.00000
     eigenvalues:
       0.167  0.167  0.167
     eigenvectors (columns):
       1.000  0.000  0.000
       0.000  1.000  0.000
       0.000  0.000  1.000
     occupation matrix ns (before diag.):
       0.167  0.000  0.000
       0.000  0.167  0.000
       0.000  0.000  0.167
     ------------------------ ATOM   27 ------------------------
     Tr[ns( 27)] =   1.00000
     eigenvalues:
       0.167  0.167  0.167
     eigenvectors (columns):
       1.000  0.000  0.000
       0.000  1.000  0.000
       0.000  0.000  1.000
     occupation matrix ns (before diag.):
       0.167  0.000  0.000
       0.000  0.167  0.000
       0.000  0.000  0.167
     ------------------------ ATOM   28 ------------------------
     Tr[ns( 28)] =   1.00000
     eigenvalues:
       0.167  0.167  0.167
     eigenvectors (columns):
       1.000  0.000  0.000
       0.000  1.000  0.000
       0.000  0.000  1.000
     occupation matrix ns (before diag.):
       0.167  0.000  0.000
       0.000  0.167  0.000
       0.000  0.000  0.167
     ------------------------ ATOM   29 ------------------------
     Tr[ns( 29)] =   3.00000
     eigenvalues:
       0.500  0.500  0.500
     eigenvectors (columns):
       1.000  0.000  0.000
       0.000  1.000  0.000
       0.000  0.000  1.000
     occupation matrix ns (before diag.):
       0.500  0.000  0.000
       0.000  0.500  0.000
       0.000  0.000  0.500
     ------------------------ ATOM   30 ------------------------
     Tr[ns( 30)] =   3.00000
     eigenvalues:
       0.500  0.500  0.500
     eigenvectors (columns):
       1.000  0.000  0.000
       0.000  1.000  0.000
       0.000  0.000  1.000
     occupation matrix ns (before diag.):
       0.500  0.000  0.000
       0.000  0.500  0.000
       0.000  0.000  0.500
     ------------------------ ATOM   31 ------------------------
     Tr[ns( 31)] =   3.00000
     eigenvalues:
       0.500  0.500  0.500
     eigenvectors (columns):
       1.000  0.000  0.000
       0.000  1.000  0.000
       0.000  0.000  1.000
     occupation matrix ns (before diag.):
       0.500  0.000  0.000
       0.000  0.500  0.000
       0.000  0.000  0.500
     ------------------------ ATOM   32 ------------------------
     Tr[ns( 32)] =   3.00000
     eigenvalues:
       0.500  0.500  0.500
     eigenvectors (columns):
       1.000  0.000  0.000
       0.000  1.000  0.000
       0.000  0.000  1.000
     occupation matrix ns (before diag.):
       0.500  0.000  0.000
       0.000  0.500  0.000
       0.000  0.000  0.500
     ------------------------ ATOM   33 ------------------------
     Tr[ns( 33)] =   1.00000
     eigenvalues:
       0.167  0.167  0.167
     eigenvectors (columns):
       1.000  0.000  0.000
       0.000  1.000  0.000
       0.000  0.000  1.000
     occupation matrix ns (before diag.):
       0.167  0.000  0.000
       0.000  0.167  0.000
       0.000  0.000  0.167
     ------------------------ ATOM   34 ------------------------
     Tr[ns( 34)] =   1.00000
     eigenvalues:
       0.167  0.167  0.167
     eigenvectors (columns):
       1.000  0.000  0.000
       0.000  1.000  0.000
       0.000  0.000  1.000
     occupation matrix ns (before diag.):
       0.167  0.000  0.000
       0.000  0.167  0.000
       0.000  0.000  0.167
     ------------------------ ATOM   35 ------------------------
     Tr[ns( 35)] =   1.00000
     eigenvalues:
       0.167  0.167  0.167
     eigenvectors (columns):
       1.000  0.000  0.000
       0.000  1.000  0.000
       0.000  0.000  1.000
     occupation matrix ns (before diag.):
       0.167  0.000  0.000
       0.000  0.167  0.000
       0.000  0.000  0.167
     ------------------------ ATOM   36 ------------------------
     Tr[ns( 36)] =   1.00000
     eigenvalues:
       0.167  0.167  0.167
     eigenvectors (columns):
       1.000  0.000  0.000
       0.000  1.000  0.000
       0.000  0.000  1.000
     occupation matrix ns (before diag.):
       0.167  0.000  0.000
       0.000  0.167  0.000
       0.000  0.000  0.167
     ------------------------ ATOM   37 ------------------------
     Tr[ns( 37)] =   3.00000
     eigenvalues:
       0.500  0.500  0.500
     eigenvectors (columns):
       1.000  0.000  0.000
       0.000  1.000  0.000
       0.000  0.000  1.000
     occupation matrix ns (before diag.):
       0.500  0.000  0.000
       0.000  0.500  0.000
       0.000  0.000  0.500
     ------------------------ ATOM   38 ------------------------
     Tr[ns( 38)] =   3.00000
     eigenvalues:
       0.500  0.500  0.500
     eigenvectors (columns):
       1.000  0.000  0.000
       0.000  1.000  0.000
       0.000  0.000  1.000
     occupation matrix ns (before diag.):
       0.500  0.000  0.000
       0.000  0.500  0.000
       0.000  0.000  0.500
     ------------------------ ATOM   39 ------------------------
     Tr[ns( 39)] =   3.00000
     eigenvalues:
       0.500  0.500  0.500
     eigenvectors (columns):
       1.000  0.000  0.000
       0.000  1.000  0.000
       0.000  0.000  1.000
     occupation matrix ns (before diag.):
       0.500  0.000  0.000
       0.000  0.500  0.000
       0.000  0.000  0.500
     ------------------------ ATOM   40 ------------------------
     Tr[ns( 40)] =   3.00000
     eigenvalues:
       0.500  0.500  0.500
     eigenvectors (columns):
       1.000  0.000  0.000
       0.000  1.000  0.000
       0.000  0.000  1.000
     occupation matrix ns (before diag.):
       0.500  0.000  0.000
       0.000  0.500  0.000
       0.000  0.000  0.500
     ------------------------ ATOM   41 ------------------------
     Tr[ns( 41)] =   1.00000
     eigenvalues:
       0.167  0.167  0.167
     eigenvectors (columns):
       1.000  0.000  0.000
       0.000  1.000  0.000
       0.000  0.000  1.000
     occupation matrix ns (before diag.):
       0.167  0.000  0.000
       0.000  0.167  0.000
       0.000  0.000  0.167
     ------------------------ ATOM   42 ------------------------
     Tr[ns( 42)] =   1.00000
     eigenvalues:
       0.167  0.167  0.167
     eigenvectors (columns):
       1.000  0.000  0.000
       0.000  1.000  0.000
       0.000  0.000  1.000
     occupation matrix ns (before diag.):
       0.167  0.000  0.000
       0.000  0.167  0.000
       0.000  0.000  0.167
     ------------------------ ATOM   43 ------------------------
     Tr[ns( 43)] =   1.00000
     eigenvalues:
       0.167  0.167  0.167
     eigenvectors (columns):
       1.000  0.000  0.000
       0.000  1.000  0.000
       0.000  0.000  1.000
     occupation matrix ns (before diag.):
       0.167  0.000  0.000
       0.000  0.167  0.000
       0.000  0.000  0.167
     ------------------------ ATOM   44 ------------------------
     Tr[ns( 44)] =   1.00000
     eigenvalues:
       0.167  0.167  0.167
     eigenvectors (columns):
       1.000  0.000  0.000
       0.000  1.000  0.000
       0.000  0.000  1.000
     occupation matrix ns (before diag.):
       0.167  0.000  0.000
       0.000  0.167  0.000
       0.000  0.000  0.167
     ------------------------ ATOM   45 ------------------------
     Tr[ns( 45)] =   3.00000
     eigenvalues:
       0.500  0.500  0.500
     eigenvectors (columns):
       1.000  0.000  0.000
       0.000  1.000  0.000
       0.000  0.000  1.000
     occupation matrix ns (before diag.):
       0.500  0.000  0.000
       0.000  0.500  0.000
       0.000  0.000  0.500
     ------------------------ ATOM   46 ------------------------
     Tr[ns( 46)] =   3.00000
     eigenvalues:
       0.500  0.500  0.500
     eigenvectors (columns):
       1.000  0.000  0.000
       0.000  1.000  0.000
       0.000  0.000  1.000
     occupation matrix ns (before diag.):
       0.500  0.000  0.000
       0.000  0.500  0.000
       0.000  0.000  0.500
     ------------------------ ATOM   47 ------------------------
     Tr[ns( 47)] =   3.00000
     eigenvalues:
       0.500  0.500  0.500
     eigenvectors (columns):
       1.000  0.000  0.000
       0.000  1.000  0.000
       0.000  0.000  1.000
     occupation matrix ns (before diag.):
       0.500  0.000  0.000
       0.000  0.500  0.000
       0.000  0.000  0.500
     ------------------------ ATOM   48 ------------------------
     Tr[ns( 48)] =   3.00000
     eigenvalues:
       0.500  0.500  0.500
     eigenvectors (columns):
       1.000  0.000  0.000
       0.000  1.000  0.000
       0.000  0.000  1.000
     occupation matrix ns (before diag.):
       0.500  0.000  0.000
       0.000  0.500  0.000
       0.000  0.000  0.500
     ------------------------ ATOM   49 ------------------------
     Tr[ns( 49)] =   1.00000
     eigenvalues:
       0.167  0.167  0.167
     eigenvectors (columns):
       1.000  0.000  0.000
       0.000  1.000  0.000
       0.000  0.000  1.000
     occupation matrix ns (before diag.):
       0.167  0.000  0.000
       0.000  0.167  0.000
       0.000  0.000  0.167
     ------------------------ ATOM   50 ------------------------
     Tr[ns( 50)] =   1.00000
     eigenvalues:
       0.167  0.167  0.167
     eigenvectors (columns):
       1.000  0.000  0.000
       0.000  1.000  0.000
       0.000  0.000  1.000
     occupation matrix ns (before diag.):
       0.167  0.000  0.000
       0.000  0.167  0.000
       0.000  0.000  0.167
     ------------------------ ATOM   51 ------------------------
     Tr[ns( 51)] =   1.00000
     eigenvalues:
       0.167  0.167  0.167
     eigenvectors (columns):
       1.000  0.000  0.000
       0.000  1.000  0.000
       0.000  0.000  1.000
     occupation matrix ns (before diag.):
       0.167  0.000  0.000
       0.000  0.167  0.000
       0.000  0.000  0.167
     ------------------------ ATOM   52 ------------------------
     Tr[ns( 52)] =   1.00000
     eigenvalues:
       0.167  0.167  0.167
     eigenvectors (columns):
       1.000  0.000  0.000
       0.000  1.000  0.000
       0.000  0.000  1.000
     occupation matrix ns (before diag.):
       0.167  0.000  0.000
       0.000  0.167  0.000
       0.000  0.000  0.167
     ------------------------ ATOM   53 ------------------------
     Tr[ns( 53)] =   3.00000
     eigenvalues:
       0.500  0.500  0.500
     eigenvectors (columns):
       1.000  0.000  0.000
       0.000  1.000  0.000
       0.000  0.000  1.000
     occupation matrix ns (before diag.):
       0.500  0.000  0.000
       0.000  0.500  0.000
       0.000  0.000  0.500
     ------------------------ ATOM   54 ------------------------
     Tr[ns( 54)] =   3.00000
     eigenvalues:
       0.500  0.500  0.500
     eigenvectors (columns):
       1.000  0.000  0.000
       0.000  1.000  0.000
       0.000  0.000  1.000
     occupation matrix ns (before diag.):
       0.500  0.000  0.000
       0.000  0.500  0.000
       0.000  0.000  0.500
     ------------------------ ATOM   55 ------------------------
     Tr[ns( 55)] =   3.00000
     eigenvalues:
       0.500  0.500  0.500
     eigenvectors (columns):
       1.000  0.000  0.000
       0.000  1.000  0.000
       0.000  0.000  1.000
     occupation matrix ns (before diag.):
       0.500  0.000  0.000
       0.000  0.500  0.000
       0.000  0.000  0.500
     ------------------------ ATOM   56 ------------------------
     Tr[ns( 56)] =   3.00000
     eigenvalues:
       0.500  0.500  0.500
     eigenvectors (columns):
       1.000  0.000  0.000
       0.000  1.000  0.000
       0.000  0.000  1.000
     occupation matrix ns (before diag.):
       0.500  0.000  0.000
       0.000  0.500  0.000
       0.000  0.000  0.500
     ------------------------ ATOM   57 ------------------------
     Tr[ns( 57)] =   1.00000
     eigenvalues:
       0.167  0.167  0.167
     eigenvectors (columns):
       1.000  0.000  0.000
       0.000  1.000  0.000
       0.000  0.000  1.000
     occupation matrix ns (before diag.):
       0.167  0.000  0.000
       0.000  0.167  0.000
       0.000  0.000  0.167
     ------------------------ ATOM   58 ------------------------
     Tr[ns( 58)] =   1.00000
     eigenvalues:
       0.167  0.167  0.167
     eigenvectors (columns):
       1.000  0.000  0.000
       0.000  1.000  0.000
       0.000  0.000  1.000
     occupation matrix ns (before diag.):
       0.167  0.000  0.000
       0.000  0.167  0.000
       0.000  0.000  0.167
     ------------------------ ATOM   59 ------------------------
     Tr[ns( 59)] =   1.00000
     eigenvalues:
       0.167  0.167  0.167
     eigenvectors (columns):
       1.000  0.000  0.000
       0.000  1.000  0.000
       0.000  0.000  1.000
     occupation matrix ns (before diag.):
       0.167  0.000  0.000
       0.000  0.167  0.000
       0.000  0.000  0.167
     ------------------------ ATOM   60 ------------------------
     Tr[ns( 60)] =   1.00000
     eigenvalues:
       0.167  0.167  0.167
     eigenvectors (columns):
       1.000  0.000  0.000
       0.000  1.000  0.000
       0.000  0.000  1.000
     occupation matrix ns (before diag.):
       0.167  0.000  0.000
       0.000  0.167  0.000
       0.000  0.000  0.167
     ------------------------ ATOM   61 ------------------------
     Tr[ns( 61)] =   3.00000
     eigenvalues:
       0.500  0.500  0.500
     eigenvectors (columns):
       1.000  0.000  0.000
       0.000  1.000  0.000
       0.000  0.000  1.000
     occupation matrix ns (before diag.):
       0.500  0.000  0.000
       0.000  0.500  0.000
       0.000  0.000  0.500
     ------------------------ ATOM   62 ------------------------
     Tr[ns( 62)] =   3.00000
     eigenvalues:
       0.500  0.500  0.500
     eigenvectors (columns):
       1.000  0.000  0.000
       0.000  1.000  0.000
       0.000  0.000  1.000
     occupation matrix ns (before diag.):
       0.500  0.000  0.000
       0.000  0.500  0.000
       0.000  0.000  0.500
     ------------------------ ATOM   63 ------------------------
     Tr[ns( 63)] =   3.00000
     eigenvalues:
       0.500  0.500  0.500
     eigenvectors (columns):
       1.000  0.000  0.000
       0.000  1.000  0.000
       0.000  0.000  1.000
     occupation matrix ns (before diag.):
       0.500  0.000  0.000
       0.000  0.500  0.000
       0.000  0.000  0.500
     ------------------------ ATOM   64 ------------------------
     Tr[ns( 64)] =   3.00000
     eigenvalues:
       0.500  0.500  0.500
     eigenvectors (columns):
       1.000  0.000  0.000
       0.000  1.000  0.000
       0.000  0.000  1.000
     occupation matrix ns (before diag.):
       0.500  0.000  0.000
       0.000  0.500  0.000
       0.000  0.000  0.500
     ------------------------ ATOM   65 ------------------------
     Tr[ns( 65)] =   1.00000
     eigenvalues:
       0.167  0.167  0.167
     eigenvectors (columns):
       1.000  0.000  0.000
       0.000  1.000  0.000
       0.000  0.000  1.000
     occupation matrix ns (before diag.):
       0.167  0.000  0.000
       0.000  0.167  0.000
       0.000  0.000  0.167
     ------------------------ ATOM   66 ------------------------
     Tr[ns( 66)] =   1.00000
     eigenvalues:
       0.167  0.167  0.167
     eigenvectors (columns):
       1.000  0.000  0.000
       0.000  1.000  0.000
       0.000  0.000  1.000
     occupation matrix ns (before diag.):
       0.167  0.000  0.000
       0.000  0.167  0.000
       0.000  0.000  0.167
     ------------------------ ATOM   67 ------------------------
     Tr[ns( 67)] =   1.00000
     eigenvalues:
       0.167  0.167  0.167
     eigenvectors (columns):
       1.000  0.000  0.000
       0.000  1.000  0.000
       0.000  0.000  1.000
     occupation matrix ns (before diag.):
       0.167  0.000  0.000
       0.000  0.167  0.000
       0.000  0.000  0.167
     ------------------------ ATOM   68 ------------------------
     Tr[ns( 68)] =   1.00000
     eigenvalues:
       0.167  0.167  0.167
     eigenvectors (columns):
       1.000  0.000  0.000
       0.000  1.000  0.000
       0.000  0.000  1.000
     occupation matrix ns (before diag.):
       0.167  0.000  0.000
       0.000  0.167  0.000
       0.000  0.000  0.167
     ------------------------ ATOM   69 ------------------------
     Tr[ns( 69)] =   3.00000
     eigenvalues:
       0.500  0.500  0.500
     eigenvectors (columns):
       1.000  0.000  0.000
       0.000  1.000  0.000
       0.000  0.000  1.000
     occupation matrix ns (before diag.):
       0.500  0.000  0.000
       0.000  0.500  0.000
       0.000  0.000  0.500
     ------------------------ ATOM   70 ------------------------
     Tr[ns( 70)] =   3.00000
     eigenvalues:
       0.500  0.500  0.500
     eigenvectors (columns):
       1.000  0.000  0.000
       0.000  1.000  0.000
       0.000  0.000  1.000
     occupation matrix ns (before diag.):
       0.500  0.000  0.000
       0.000  0.500  0.000
       0.000  0.000  0.500
     ------------------------ ATOM   71 ------------------------
     Tr[ns( 71)] =   3.00000
     eigenvalues:
       0.500  0.500  0.500
     eigenvectors (columns):
       1.000  0.000  0.000
       0.000  1.000  0.000
       0.000  0.000  1.000
     occupation matrix ns (before diag.):
       0.500  0.000  0.000
       0.000  0.500  0.000
       0.000  0.000  0.500
     ------------------------ ATOM   72 ------------------------
     Tr[ns( 72)] =   3.00000
     eigenvalues:
       0.500  0.500  0.500
     eigenvectors (columns):
       1.000  0.000  0.000
       0.000  1.000  0.000
       0.000  0.000  1.000
     occupation matrix ns (before diag.):
       0.500  0.000  0.000
       0.000  0.500  0.000
       0.000  0.000  0.500
     ------------------------ ATOM   73 ------------------------
     Tr[ns( 73)] =   1.00000
     eigenvalues:
       0.167  0.167  0.167
     eigenvectors (columns):
       1.000  0.000  0.000
       0.000  1.000  0.000
       0.000  0.000  1.000
     occupation matrix ns (before diag.):
       0.167  0.000  0.000
       0.000  0.167  0.000
       0.000  0.000  0.167
     ------------------------ ATOM   74 ------------------------
     Tr[ns( 74)] =   1.00000
     eigenvalues:
       0.167  0.167  0.167
     eigenvectors (columns):
       1.000  0.000  0.000
       0.000  1.000  0.000
       0.000  0.000  1.000
     occupation matrix ns (before diag.):
       0.167  0.000  0.000
       0.000  0.167  0.000
       0.000  0.000  0.167
     ------------------------ ATOM   75 ------------------------
     Tr[ns( 75)] =   1.00000
     eigenvalues:
       0.167  0.167  0.167
     eigenvectors (columns):
       1.000  0.000  0.000
       0.000  1.000  0.000
       0.000  0.000  1.000
     occupation matrix ns (before diag.):
       0.167  0.000  0.000
       0.000  0.167  0.000
       0.000  0.000  0.167
     ------------------------ ATOM   76 ------------------------
     Tr[ns( 76)] =   1.00000
     eigenvalues:
       0.167  0.167  0.167
     eigenvectors (columns):
       1.000  0.000  0.000
       0.000  1.000  0.000
       0.000  0.000  1.000
     occupation matrix ns (before diag.):
       0.167  0.000  0.000
       0.000  0.167  0.000
       0.000  0.000  0.167
     ------------------------ ATOM   77 ------------------------
     Tr[ns( 77)] =   3.00000
     eigenvalues:
       0.500  0.500  0.500
     eigenvectors (columns):
       1.000  0.000  0.000
       0.000  1.000  0.000
       0.000  0.000  1.000
     occupation matrix ns (before diag.):
       0.500  0.000  0.000
       0.000  0.500  0.000
       0.000  0.000  0.500
     ------------------------ ATOM   78 ------------------------
     Tr[ns( 78)] =   3.00000
     eigenvalues:
       0.500  0.500  0.500
     eigenvectors (columns):
       1.000  0.000  0.000
       0.000  1.000  0.000
       0.000  0.000  1.000
     occupation matrix ns (before diag.):
       0.500  0.000  0.000
       0.000  0.500  0.000
       0.000  0.000  0.500
     ------------------------ ATOM   79 ------------------------
     Tr[ns( 79)] =   3.00000
     eigenvalues:
       0.500  0.500  0.500
     eigenvectors (columns):
       1.000  0.000  0.000
       0.000  1.000  0.000
       0.000  0.000  1.000
     occupation matrix ns (before diag.):
       0.500  0.000  0.000
       0.000  0.500  0.000
       0.000  0.000  0.500
     ------------------------ ATOM   80 ------------------------
     Tr[ns( 80)] =   3.00000
     eigenvalues:
       0.500  0.500  0.500
     eigenvectors (columns):
       1.000  0.000  0.000
       0.000  1.000  0.000
       0.000  0.000  1.000
     occupation matrix ns (before diag.):
       0.500  0.000  0.000
       0.000  0.500  0.000
       0.000  0.000  0.500
     ------------------------ ATOM   81 ------------------------
     Tr[ns( 81)] =   1.00000
     eigenvalues:
       0.167  0.167  0.167
     eigenvectors (columns):
       1.000  0.000  0.000
       0.000  1.000  0.000
       0.000  0.000  1.000
     occupation matrix ns (before diag.):
       0.167  0.000  0.000
       0.000  0.167  0.000
       0.000  0.000  0.167
     ------------------------ ATOM   82 ------------------------
     Tr[ns( 82)] =   1.00000
     eigenvalues:
       0.167  0.167  0.167
     eigenvectors (columns):
       1.000  0.000  0.000
       0.000  1.000  0.000
       0.000  0.000  1.000
     occupation matrix ns (before diag.):
       0.167  0.000  0.000
       0.000  0.167  0.000
       0.000  0.000  0.167
     ------------------------ ATOM   83 ------------------------
     Tr[ns( 83)] =   1.00000
     eigenvalues:
       0.167  0.167  0.167
     eigenvectors (columns):
       1.000  0.000  0.000
       0.000  1.000  0.000
       0.000  0.000  1.000
     occupation matrix ns (before diag.):
       0.167  0.000  0.000
       0.000  0.167  0.000
       0.000  0.000  0.167
     ------------------------ ATOM   84 ------------------------
     Tr[ns( 84)] =   1.00000
     eigenvalues:
       0.167  0.167  0.167
     eigenvectors (columns):
       1.000  0.000  0.000
       0.000  1.000  0.000
       0.000  0.000  1.000
     occupation matrix ns (before diag.):
       0.167  0.000  0.000
       0.000  0.167  0.000
       0.000  0.000  0.167
     ------------------------ ATOM   85 ------------------------
     Tr[ns( 85)] =   3.00000
     eigenvalues:
       0.500  0.500  0.500
     eigenvectors (columns):
       1.000  0.000  0.000
       0.000  1.000  0.000
       0.000  0.000  1.000
     occupation matrix ns (before diag.):
       0.500  0.000  0.000
       0.000  0.500  0.000
       0.000  0.000  0.500
     ------------------------ ATOM   86 ------------------------
     Tr[ns( 86)] =   3.00000
     eigenvalues:
       0.500  0.500  0.500
     eigenvectors (columns):
       1.000  0.000  0.000
       0.000  1.000  0.000
       0.000  0.000  1.000
     occupation matrix ns (before diag.):
       0.500  0.000  0.000
       0.000  0.500  0.000
       0.000  0.000  0.500
     ------------------------ ATOM   87 ------------------------
     Tr[ns( 87)] =   3.00000
     eigenvalues:
       0.500  0.500  0.500
     eigenvectors (columns):
       1.000  0.000  0.000
       0.000  1.000  0.000
       0.000  0.000  1.000
     occupation matrix ns (before diag.):
       0.500  0.000  0.000
       0.000  0.500  0.000
       0.000  0.000  0.500
     ------------------------ ATOM   88 ------------------------
     Tr[ns( 88)] =   3.00000
     eigenvalues:
       0.500  0.500  0.500
     eigenvectors (columns):
       1.000  0.000  0.000
       0.000  1.000  0.000
       0.000  0.000  1.000
     occupation matrix ns (before diag.):
       0.500  0.000  0.000
       0.000  0.500  0.000
       0.000  0.000  0.500
     ------------------------ ATOM   89 ------------------------
     Tr[ns( 89)] =   1.00000
     eigenvalues:
       0.167  0.167  0.167
     eigenvectors (columns):
       1.000  0.000  0.000
       0.000  1.000  0.000
       0.000  0.000  1.000
     occupation matrix ns (before diag.):
       0.167  0.000  0.000
       0.000  0.167  0.000
       0.000  0.000  0.167
     ------------------------ ATOM   90 ------------------------
     Tr[ns( 90)] =   1.00000
     eigenvalues:
       0.167  0.167  0.167
     eigenvectors (columns):
       1.000  0.000  0.000
       0.000  1.000  0.000
       0.000  0.000  1.000
     occupation matrix ns (before diag.):
       0.167  0.000  0.000
       0.000  0.167  0.000
       0.000  0.000  0.167
     ------------------------ ATOM   91 ------------------------
     Tr[ns( 91)] =   1.00000
     eigenvalues:
       0.167  0.167  0.167
     eigenvectors (columns):
       1.000  0.000  0.000
       0.000  1.000  0.000
       0.000  0.000  1.000
     occupation matrix ns (before diag.):
       0.167  0.000  0.000
       0.000  0.167  0.000
       0.000  0.000  0.167
     ------------------------ ATOM   92 ------------------------
     Tr[ns( 92)] =   1.00000
     eigenvalues:
       0.167  0.167  0.167
     eigenvectors (columns):
       1.000  0.000  0.000
       0.000  1.000  0.000
       0.000  0.000  1.000
     occupation matrix ns (before diag.):
       0.167  0.000  0.000
       0.000  0.167  0.000
       0.000  0.000  0.167
     ------------------------ ATOM   93 ------------------------
     Tr[ns( 93)] =   3.00000
     eigenvalues:
       0.500  0.500  0.500
     eigenvectors (columns):
       1.000  0.000  0.000
       0.000  1.000  0.000
       0.000  0.000  1.000
     occupation matrix ns (before diag.):
       0.500  0.000  0.000
       0.000  0.500  0.000
       0.000  0.000  0.500
     ------------------------ ATOM   94 ------------------------
     Tr[ns( 94)] =   3.00000
     eigenvalues:
       0.500  0.500  0.500
     eigenvectors (columns):
       1.000  0.000  0.000
       0.000  1.000  0.000
       0.000  0.000  1.000
     occupation matrix ns (before diag.):
       0.500  0.000  0.000
       0.000  0.500  0.000
       0.000  0.000  0.500
     ------------------------ ATOM   95 ------------------------
     Tr[ns( 95)] =   3.00000
     eigenvalues:
       0.500  0.500  0.500
     eigenvectors (columns):
       1.000  0.000  0.000
       0.000  1.000  0.000
       0.000  0.000  1.000
     occupation matrix ns (before diag.):
       0.500  0.000  0.000
       0.000  0.500  0.000
       0.000  0.000  0.500
     ------------------------ ATOM   96 ------------------------
     Tr[ns( 96)] =   3.00000
     eigenvalues:
       0.500  0.500  0.500
     eigenvectors (columns):
       1.000  0.000  0.000
       0.000  1.000  0.000
       0.000  0.000  1.000
     occupation matrix ns (before diag.):
       0.500  0.000  0.000
       0.000  0.500  0.000
       0.000  0.000  0.500
     ------------------------ ATOM   97 ------------------------
     Tr[ns( 97)] =   1.00000
     eigenvalues:
       0.167  0.167  0.167
     eigenvectors (columns):
       1.000  0.000  0.000
       0.000  1.000  0.000
       0.000  0.000  1.000
     occupation matrix ns (before diag.):
       0.167  0.000  0.000
       0.000  0.167  0.000
       0.000  0.000  0.167
     ------------------------ ATOM   98 ------------------------
     Tr[ns( 98)] =   1.00000
     eigenvalues:
       0.167  0.167  0.167
     eigenvectors (columns):
       1.000  0.000  0.000
       0.000  1.000  0.000
       0.000  0.000  1.000
     occupation matrix ns (before diag.):
       0.167  0.000  0.000
       0.000  0.167  0.000
       0.000  0.000  0.167
     ------------------------ ATOM   99 ------------------------
     Tr[ns( 99)] =   1.00000
     eigenvalues:
       0.167  0.167  0.167
     eigenvectors (columns):
       1.000  0.000  0.000
       0.000  1.000  0.000
       0.000  0.000  1.000
     occupation matrix ns (before diag.):
       0.167  0.000  0.000
       0.000  0.167  0.000
       0.000  0.000  0.167
     ------------------------ ATOM  100 ------------------------
     Tr[ns(100)] =   1.00000
     eigenvalues:
       0.167  0.167  0.167
     eigenvectors (columns):
       1.000  0.000  0.000
       0.000  1.000  0.000
       0.000  0.000  1.000
     occupation matrix ns (before diag.):
       0.167  0.000  0.000
       0.000  0.167  0.000
       0.000  0.000  0.167
     ------------------------ ATOM  101 ------------------------
     Tr[ns(101)] =   3.00000
     eigenvalues:
       0.500  0.500  0.500
     eigenvectors (columns):
       1.000  0.000  0.000
       0.000  1.000  0.000
       0.000  0.000  1.000
     occupation matrix ns (before diag.):
       0.500  0.000  0.000
       0.000  0.500  0.000
       0.000  0.000  0.500
     ------------------------ ATOM  102 ------------------------
     Tr[ns(102)] =   3.00000
     eigenvalues:
       0.500  0.500  0.500
     eigenvectors (columns):
       1.000  0.000  0.000
       0.000  1.000  0.000
       0.000  0.000  1.000
     occupation matrix ns (before diag.):
       0.500  0.000  0.000
       0.000  0.500  0.000
       0.000  0.000  0.500
     ------------------------ ATOM  103 ------------------------
     Tr[ns(103)] =   3.00000
     eigenvalues:
       0.500  0.500  0.500
     eigenvectors (columns):
       1.000  0.000  0.000
       0.000  1.000  0.000
       0.000  0.000  1.000
     occupation matrix ns (before diag.):
       0.500  0.000  0.000
       0.000  0.500  0.000
       0.000  0.000  0.500
     ------------------------ ATOM  104 ------------------------
     Tr[ns(104)] =   3.00000
     eigenvalues:
       0.500  0.500  0.500
     eigenvectors (columns):
       1.000  0.000  0.000
       0.000  1.000  0.000
       0.000  0.000  1.000
     occupation matrix ns (before diag.):
       0.500  0.000  0.000
       0.000  0.500  0.000
       0.000  0.000  0.500
     ------------------------ ATOM  105 ------------------------
     Tr[ns(105)] =   1.00000
     eigenvalues:
       0.167  0.167  0.167
     eigenvectors (columns):
       1.000  0.000  0.000
       0.000  1.000  0.000
       0.000  0.000  1.000
     occupation matrix ns (before diag.):
       0.167  0.000  0.000
       0.000  0.167  0.000
       0.000  0.000  0.167
     ------------------------ ATOM  106 ------------------------
     Tr[ns(106)] =   1.00000
     eigenvalues:
       0.167  0.167  0.167
     eigenvectors (columns):
       1.000  0.000  0.000
       0.000  1.000  0.000
       0.000  0.000  1.000
     occupation matrix ns (before diag.):
       0.167  0.000  0.000
       0.000  0.167  0.000
       0.000  0.000  0.167
     ------------------------ ATOM  107 ------------------------
     Tr[ns(107)] =   1.00000
     eigenvalues:
       0.167  0.167  0.167
     eigenvectors (columns):
       1.000  0.000  0.000
       0.000  1.000  0.000
       0.000  0.000  1.000
     occupation matrix ns (before diag.):
       0.167  0.000  0.000
       0.000  0.167  0.000
       0.000  0.000  0.167
     ------------------------ ATOM  108 ------------------------
     Tr[ns(108)] =   1.00000
     eigenvalues:
       0.167  0.167  0.167
     eigenvectors (columns):
       1.000  0.000  0.000
       0.000  1.000  0.000
       0.000  0.000  1.000
     occupation matrix ns (before diag.):
       0.167  0.000  0.000
       0.000  0.167  0.000
       0.000  0.000  0.167
     ------------------------ ATOM  109 ------------------------
     Tr[ns(109)] =   3.00000
     eigenvalues:
       0.500  0.500  0.500
     eigenvectors (columns):
       1.000  0.000  0.000
       0.000  1.000  0.000
       0.000  0.000  1.000
     occupation matrix ns (before diag.):
       0.500  0.000  0.000
       0.000  0.500  0.000
       0.000  0.000  0.500
     ------------------------ ATOM  110 ------------------------
     Tr[ns(110)] =   3.00000
     eigenvalues:
       0.500  0.500  0.500
     eigenvectors (columns):
       1.000  0.000  0.000
       0.000  1.000  0.000
       0.000  0.000  1.000
     occupation matrix ns (before diag.):
       0.500  0.000  0.000
       0.000  0.500  0.000
       0.000  0.000  0.500
     ------------------------ ATOM  111 ------------------------
     Tr[ns(111)] =   3.00000
     eigenvalues:
       0.500  0.500  0.500
     eigenvectors (columns):
       1.000  0.000  0.000
       0.000  1.000  0.000
       0.000  0.000  1.000
     occupation matrix ns (before diag.):
       0.500  0.000  0.000
       0.000  0.500  0.000
       0.000  0.000  0.500
     ------------------------ ATOM  112 ------------------------
     Tr[ns(112)] =   3.00000
     eigenvalues:
       0.500  0.500  0.500
     eigenvectors (columns):
       1.000  0.000  0.000
       0.000  1.000  0.000
       0.000  0.000  1.000
     occupation matrix ns (before diag.):
       0.500  0.000  0.000
       0.000  0.500  0.000
       0.000  0.000  0.500
     ------------------------ ATOM  113 ------------------------
     Tr[ns(113)] =   1.00000
     eigenvalues:
       0.167  0.167  0.167
     eigenvectors (columns):
       1.000  0.000  0.000
       0.000  1.000  0.000
       0.000  0.000  1.000
     occupation matrix ns (before diag.):
       0.167  0.000  0.000
       0.000  0.167  0.000
       0.000  0.000  0.167
     ------------------------ ATOM  114 ------------------------
     Tr[ns(114)] =   1.00000
     eigenvalues:
       0.167  0.167  0.167
     eigenvectors (columns):
       1.000  0.000  0.000
       0.000  1.000  0.000
       0.000  0.000  1.000
     occupation matrix ns (before diag.):
       0.167  0.000  0.000
       0.000  0.167  0.000
       0.000  0.000  0.167
     ------------------------ ATOM  115 ------------------------
     Tr[ns(115)] =   1.00000
     eigenvalues:
       0.167  0.167  0.167
     eigenvectors (columns):
       1.000  0.000  0.000
       0.000  1.000  0.000
       0.000  0.000  1.000
     occupation matrix ns (before diag.):
       0.167  0.000  0.000
       0.000  0.167  0.000
       0.000  0.000  0.167
     ------------------------ ATOM  116 ------------------------
     Tr[ns(116)] =   1.00000
     eigenvalues:
       0.167  0.167  0.167
     eigenvectors (columns):
       1.000  0.000  0.000
       0.000  1.000  0.000
       0.000  0.000  1.000
     occupation matrix ns (before diag.):
       0.167  0.000  0.000
       0.000  0.167  0.000
       0.000  0.000  0.167
     ------------------------ ATOM  117 ------------------------
     Tr[ns(117)] =   3.00000
     eigenvalues:
       0.500  0.500  0.500
     eigenvectors (columns):
       1.000  0.000  0.000
       0.000  1.000  0.000
       0.000  0.000  1.000
     occupation matrix ns (before diag.):
       0.500  0.000  0.000
       0.000  0.500  0.000
       0.000  0.000  0.500
     ------------------------ ATOM  118 ------------------------
     Tr[ns(118)] =   3.00000
     eigenvalues:
       0.500  0.500  0.500
     eigenvectors (columns):
       1.000  0.000  0.000
       0.000  1.000  0.000
       0.000  0.000  1.000
     occupation matrix ns (before diag.):
       0.500  0.000  0.000
       0.000  0.500  0.000
       0.000  0.000  0.500
     ------------------------ ATOM  119 ------------------------
     Tr[ns(119)] =   3.00000
     eigenvalues:
       0.500  0.500  0.500
     eigenvectors (columns):
       1.000  0.000  0.000
       0.000  1.000  0.000
       0.000  0.000  1.000
     occupation matrix ns (before diag.):
       0.500  0.000  0.000
       0.000  0.500  0.000
       0.000  0.000  0.500
     ------------------------ ATOM  120 ------------------------
     Tr[ns(120)] =   3.00000
     eigenvalues:
       0.500  0.500  0.500
     eigenvectors (columns):
       1.000  0.000  0.000
       0.000  1.000  0.000
       0.000  0.000  1.000
     occupation matrix ns (before diag.):
       0.500  0.000  0.000
       0.000  0.500  0.000
       0.000  0.000  0.500
     ------------------------ ATOM  121 ------------------------
     Tr[ns(121)] =   1.00000
     eigenvalues:
       0.167  0.167  0.167
     eigenvectors (columns):
       1.000  0.000  0.000
       0.000  1.000  0.000
       0.000  0.000  1.000
     occupation matrix ns (before diag.):
       0.167  0.000  0.000
       0.000  0.167  0.000
       0.000  0.000  0.167
     ------------------------ ATOM  122 ------------------------
     Tr[ns(122)] =   1.00000
     eigenvalues:
       0.167  0.167  0.167
     eigenvectors (columns):
       1.000  0.000  0.000
       0.000  1.000  0.000
       0.000  0.000  1.000
     occupation matrix ns (before diag.):
       0.167  0.000  0.000
       0.000  0.167  0.000
       0.000  0.000  0.167
     ------------------------ ATOM  123 ------------------------
     Tr[ns(123)] =   1.00000
     eigenvalues:
       0.167  0.167  0.167
     eigenvectors (columns):
       1.000  0.000  0.000
       0.000  1.000  0.000
       0.000  0.000  1.000
     occupation matrix ns (before diag.):
       0.167  0.000  0.000
       0.000  0.167  0.000
       0.000  0.000  0.167
     ------------------------ ATOM  124 ------------------------
     Tr[ns(124)] =   1.00000
     eigenvalues:
       0.167  0.167  0.167
     eigenvectors (columns):
       1.000  0.000  0.000
       0.000  1.000  0.000
       0.000  0.000  1.000
     occupation matrix ns (before diag.):
       0.167  0.000  0.000
       0.000  0.167  0.000
       0.000  0.000  0.167
     ------------------------ ATOM  125 ------------------------
     Tr[ns(125)] =   3.00000
     eigenvalues:
       0.500  0.500  0.500
     eigenvectors (columns):
       1.000  0.000  0.000
       0.000  1.000  0.000
       0.000  0.000  1.000
     occupation matrix ns (before diag.):
       0.500  0.000  0.000
       0.000  0.500  0.000
       0.000  0.000  0.500
     ------------------------ ATOM  126 ------------------------
     Tr[ns(126)] =   3.00000
     eigenvalues:
       0.500  0.500  0.500
     eigenvectors (columns):
       1.000  0.000  0.000
       0.000  1.000  0.000
       0.000  0.000  1.000
     occupation matrix ns (before diag.):
       0.500  0.000  0.000
       0.000  0.500  0.000
       0.000  0.000  0.500
     ------------------------ ATOM  127 ------------------------
     Tr[ns(127)] =   3.00000
     eigenvalues:
       0.500  0.500  0.500
     eigenvectors (columns):
       1.000  0.000  0.000
       0.000  1.000  0.000
       0.000  0.000  1.000
     occupation matrix ns (before diag.):
       0.500  0.000  0.000
       0.000  0.500  0.000
       0.000  0.000  0.500
     ------------------------ ATOM  128 ------------------------
     Tr[ns(128)] =   3.00000
     eigenvalues:
       0.500  0.500  0.500
     eigenvectors (columns):
       1.000  0.000  0.000
       0.000  1.000  0.000
       0.000  0.000  1.000
     occupation matrix ns (before diag.):
       0.500  0.000  0.000
       0.000  0.500  0.000
       0.000  0.000  0.500
     ------------------------ ATOM  129 ------------------------
     Tr[ns(129)] =   1.00000
     eigenvalues:
       0.167  0.167  0.167
     eigenvectors (columns):
       1.000  0.000  0.000
       0.000  1.000  0.000
       0.000  0.000  1.000
     occupation matrix ns (before diag.):
       0.167  0.000  0.000
       0.000  0.167  0.000
       0.000  0.000  0.167
     ------------------------ ATOM  130 ------------------------
     Tr[ns(130)] =   1.00000
     eigenvalues:
       0.167  0.167  0.167
     eigenvectors (columns):
       1.000  0.000  0.000
       0.000  1.000  0.000
       0.000  0.000  1.000
     occupation matrix ns (before diag.):
       0.167  0.000  0.000
       0.000  0.167  0.000
       0.000  0.000  0.167
     ------------------------ ATOM  131 ------------------------
     Tr[ns(131)] =   1.00000
     eigenvalues:
       0.167  0.167  0.167
     eigenvectors (columns):
       1.000  0.000  0.000
       0.000  1.000  0.000
       0.000  0.000  1.000
     occupation matrix ns (before diag.):
       0.167  0.000  0.000
       0.000  0.167  0.000
       0.000  0.000  0.167
     ------------------------ ATOM  132 ------------------------
     Tr[ns(132)] =   1.00000
     eigenvalues:
       0.167  0.167  0.167
     eigenvectors (columns):
       1.000  0.000  0.000
       0.000  1.000  0.000
       0.000  0.000  1.000
     occupation matrix ns (before diag.):
       0.167  0.000  0.000
       0.000  0.167  0.000
       0.000  0.000  0.167
     ------------------------ ATOM  133 ------------------------
     Tr[ns(133)] =   3.00000
     eigenvalues:
       0.500  0.500  0.500
     eigenvectors (columns):
       1.000  0.000  0.000
       0.000  1.000  0.000
       0.000  0.000  1.000
     occupation matrix ns (before diag.):
       0.500  0.000  0.000
       0.000  0.500  0.000
       0.000  0.000  0.500
     ------------------------ ATOM  134 ------------------------
     Tr[ns(134)] =   3.00000
     eigenvalues:
       0.500  0.500  0.500
     eigenvectors (columns):
       1.000  0.000  0.000
       0.000  1.000  0.000
       0.000  0.000  1.000
     occupation matrix ns (before diag.):
       0.500  0.000  0.000
       0.000  0.500  0.000
       0.000  0.000  0.500
     ------------------------ ATOM  135 ------------------------
     Tr[ns(135)] =   3.00000
     eigenvalues:
       0.500  0.500  0.500
     eigenvectors (columns):
       1.000  0.000  0.000
       0.000  1.000  0.000
       0.000  0.000  1.000
     occupation matrix ns (before diag.):
       0.500  0.000  0.000
       0.000  0.500  0.000
       0.000  0.000  0.500
     ------------------------ ATOM  136 ------------------------
     Tr[ns(136)] =   3.00000
     eigenvalues:
       0.500  0.500  0.500
     eigenvectors (columns):
       1.000  0.000  0.000
       0.000  1.000  0.000
       0.000  0.000  1.000
     occupation matrix ns (before diag.):
       0.500  0.000  0.000
       0.000  0.500  0.000
       0.000  0.000  0.500
     ------------------------ ATOM  137 ------------------------
     Tr[ns(137)] =   1.00000
     eigenvalues:
       0.167  0.167  0.167
     eigenvectors (columns):
       1.000  0.000  0.000
       0.000  1.000  0.000
       0.000  0.000  1.000
     occupation matrix ns (before diag.):
       0.167  0.000  0.000
       0.000  0.167  0.000
       0.000  0.000  0.167
     ------------------------ ATOM  138 ------------------------
     Tr[ns(138)] =   1.00000
     eigenvalues:
       0.167  0.167  0.167
     eigenvectors (columns):
       1.000  0.000  0.000
       0.000  1.000  0.000
       0.000  0.000  1.000
     occupation matrix ns (before diag.):
       0.167  0.000  0.000
       0.000  0.167  0.000
       0.000  0.000  0.167
     ------------------------ ATOM  139 ------------------------
     Tr[ns(139)] =   1.00000
     eigenvalues:
       0.167  0.167  0.167
     eigenvectors (columns):
       1.000  0.000  0.000
       0.000  1.000  0.000
       0.000  0.000  1.000
     occupation matrix ns (before diag.):
       0.167  0.000  0.000
       0.000  0.167  0.000
       0.000  0.000  0.167
     ------------------------ ATOM  140 ------------------------
     Tr[ns(140)] =   1.00000
     eigenvalues:
       0.167  0.167  0.167
     eigenvectors (columns):
       1.000  0.000  0.000
       0.000  1.000  0.000
       0.000  0.000  1.000
     occupation matrix ns (before diag.):
       0.167  0.000  0.000
       0.000  0.167  0.000
       0.000  0.000  0.167
     ------------------------ ATOM  141 ------------------------
     Tr[ns(141)] =   3.00000
     eigenvalues:
       0.500  0.500  0.500
     eigenvectors (columns):
       1.000  0.000  0.000
       0.000  1.000  0.000
       0.000  0.000  1.000
     occupation matrix ns (before diag.):
       0.500  0.000  0.000
       0.000  0.500  0.000
       0.000  0.000  0.500
     ------------------------ ATOM  142 ------------------------
     Tr[ns(142)] =   3.00000
     eigenvalues:
       0.500  0.500  0.500
     eigenvectors (columns):
       1.000  0.000  0.000
       0.000  1.000  0.000
       0.000  0.000  1.000
     occupation matrix ns (before diag.):
       0.500  0.000  0.000
       0.000  0.500  0.000
       0.000  0.000  0.500
     ------------------------ ATOM  143 ------------------------
     Tr[ns(143)] =   3.00000
     eigenvalues:
       0.500  0.500  0.500
     eigenvectors (columns):
       1.000  0.000  0.000
       0.000  1.000  0.000
       0.000  0.000  1.000
     occupation matrix ns (before diag.):
       0.500  0.000  0.000
       0.000  0.500  0.000
       0.000  0.000  0.500
     ------------------------ ATOM  144 ------------------------
     Tr[ns(144)] =   3.00000
     eigenvalues:
       0.500  0.500  0.500
     eigenvectors (columns):
       1.000  0.000  0.000
       0.000  1.000  0.000
       0.000  0.000  1.000
     occupation matrix ns (before diag.):
       0.500  0.000  0.000
       0.000  0.500  0.000
       0.000  0.000  0.500
     ------------------------ ATOM  145 ------------------------
     Tr[ns(145)] =   1.00000
     eigenvalues:
       0.167  0.167  0.167
     eigenvectors (columns):
       1.000  0.000  0.000
       0.000  1.000  0.000
       0.000  0.000  1.000
     occupation matrix ns (before diag.):
       0.167  0.000  0.000
       0.000  0.167  0.000
       0.000  0.000  0.167
     ------------------------ ATOM  146 ------------------------
     Tr[ns(146)] =   1.00000
     eigenvalues:
       0.167  0.167  0.167
     eigenvectors (columns):
       1.000  0.000  0.000
       0.000  1.000  0.000
       0.000  0.000  1.000
     occupation matrix ns (before diag.):
       0.167  0.000  0.000
       0.000  0.167  0.000
       0.000  0.000  0.167
     ------------------------ ATOM  147 ------------------------
     Tr[ns(147)] =   1.00000
     eigenvalues:
       0.167  0.167  0.167
     eigenvectors (columns):
       1.000  0.000  0.000
       0.000  1.000  0.000
       0.000  0.000  1.000
     occupation matrix ns (before diag.):
       0.167  0.000  0.000
       0.000  0.167  0.000
       0.000  0.000  0.167
     ------------------------ ATOM  148 ------------------------
     Tr[ns(148)] =   1.00000
     eigenvalues:
       0.167  0.167  0.167
     eigenvectors (columns):
       1.000  0.000  0.000
       0.000  1.000  0.000
       0.000  0.000  1.000
     occupation matrix ns (before diag.):
       0.167  0.000  0.000
       0.000  0.167  0.000
       0.000  0.000  0.167
     ------------------------ ATOM  149 ------------------------
     Tr[ns(149)] =   3.00000
     eigenvalues:
       0.500  0.500  0.500
     eigenvectors (columns):
       1.000  0.000  0.000
       0.000  1.000  0.000
       0.000  0.000  1.000
     occupation matrix ns (before diag.):
       0.500  0.000  0.000
       0.000  0.500  0.000
       0.000  0.000  0.500
     ------------------------ ATOM  150 ------------------------
     Tr[ns(150)] =   3.00000
     eigenvalues:
       0.500  0.500  0.500
     eigenvectors (columns):
       1.000  0.000  0.000
       0.000  1.000  0.000
       0.000  0.000  1.000
     occupation matrix ns (before diag.):
       0.500  0.000  0.000
       0.000  0.500  0.000
       0.000  0.000  0.500
     ------------------------ ATOM  151 ------------------------
     Tr[ns(151)] =   3.00000
     eigenvalues:
       0.500  0.500  0.500
     eigenvectors (columns):
       1.000  0.000  0.000
       0.000  1.000  0.000
       0.000  0.000  1.000
     occupation matrix ns (before diag.):
       0.500  0.000  0.000
       0.000  0.500  0.000
       0.000  0.000  0.500
     ------------------------ ATOM  152 ------------------------
[...]
     Tr[ns(167)] =   5.35763
     eigenvalues:
       0.892  0.893  0.894
     eigenvectors (columns):
      -0.001  0.885  0.465
      -0.905 -0.199  0.376
      -0.425  0.420 -0.801
     occupation matrix ns (before diag.):
       0.893  0.000 -0.000
       0.000  0.892 -0.001
      -0.000 -0.001  0.893
     ------------------------ ATOM  168 ------------------------
     Tr[ns(168)] =   5.21454
     eigenvalues:
       0.868  0.869  0.871
     eigenvectors (columns):
       0.382  0.336 -0.861
      -0.887  0.394 -0.240
       0.258  0.856  0.449
     occupation matrix ns (before diag.):
       0.870  0.001 -0.001
       0.001  0.868 -0.000
      -0.001 -0.000  0.869
     ------------------------ ATOM  169 ------------------------
     Tr[ns(169)] =   4.08230
     eigenvalues:
       0.663  0.683  0.695
     eigenvectors (columns):
       0.851 -0.126 -0.510
       0.520  0.072  0.851
      -0.070 -0.989  0.127
     occupation matrix ns (before diag.):
       0.672 -0.014  0.000
      -0.014  0.686  0.002
       0.000  0.002  0.683
     ------------------------ ATOM  170 ------------------------
     Tr[ns(170)] =   4.17357
     eigenvalues:
       0.680  0.700  0.707
     eigenvectors (columns):
       0.504  0.763 -0.405
      -0.762  0.613  0.209
      -0.408 -0.203 -0.890
     occupation matrix ns (before diag.):
       0.696  0.007  0.007
       0.007  0.689 -0.008
       0.007 -0.008  0.702
     ------------------------ ATOM  171 ------------------------
     Tr[ns(171)] =   4.31644
     eigenvalues:
       0.715  0.720  0.724
     eigenvectors (columns):
       0.206  0.396 -0.895
      -0.938  0.341 -0.064
       0.280  0.852  0.442
     occupation matrix ns (before diag.):
       0.723  0.001 -0.002
       0.001  0.715  0.001
      -0.002  0.001  0.720
     ------------------------ ATOM  172 ------------------------
     Tr[ns(172)] =   4.19390
     eigenvalues:
       0.691  0.702  0.704
     eigenvectors (columns):
       0.579 -0.749  0.322
       0.689  0.660  0.299
      -0.437  0.049  0.898
     occupation matrix ns (before diag.):
       0.698 -0.004  0.004
      -0.004  0.697  0.004
       0.004  0.004  0.702
     ------------------------ ATOM  173 ------------------------
     Tr[ns(173)] =   5.22270
     eigenvalues:
       0.869  0.871  0.872
     eigenvectors (columns):
      -0.423  0.781 -0.458
       0.840  0.528  0.124
      -0.339  0.332  0.880
     occupation matrix ns (before diag.):
       0.871  0.001 -0.001
       0.001  0.869  0.001
      -0.001  0.001  0.872
     ------------------------ ATOM  174 ------------------------
     Tr[ns(174)] =   5.35938
     eigenvalues:
       0.892  0.893  0.894
     eigenvectors (columns):
       0.528  0.631 -0.568
      -0.847  0.434 -0.306
       0.053  0.643  0.764
     occupation matrix ns (before diag.):
       0.893  0.001 -0.000
       0.001  0.892 -0.000
      -0.000 -0.000  0.894
     ------------------------ ATOM  175 ------------------------
     Tr[ns(175)] =   5.23354
     eigenvalues:
       0.870  0.873  0.874
     eigenvectors (columns):
       0.969 -0.201 -0.145
       0.245  0.867  0.435
       0.038 -0.456  0.889
     occupation matrix ns (before diag.):
       0.871 -0.001 -0.000
      -0.001  0.873  0.000
      -0.000  0.000  0.873
     ------------------------ ATOM  176 ------------------------
     Tr[ns(176)] =   5.22928
     eigenvalues:
       0.869  0.871  0.874
     eigenvectors (columns):
       0.601  0.445  0.664
      -0.186 -0.730  0.657
       0.777 -0.519 -0.357
     occupation matrix ns (before diag.):
       0.872  0.001 -0.001
       0.001  0.872 -0.000
      -0.001 -0.000  0.871
     ------------------------ ATOM  177 ------------------------
     Tr[ns(177)] =   4.30359
     eigenvalues:
       0.711  0.719  0.722
     eigenvectors (columns):
      -0.129 -0.114  0.985
      -0.937  0.340 -0.084
       0.326  0.933  0.151
     occupation matrix ns (before diag.):
       0.721 -0.001  0.001
      -0.001  0.712  0.002
       0.001  0.002  0.718
     ------------------------ ATOM  178 ------------------------
     Tr[ns(178)] =   4.29435
     eigenvalues:
       0.712  0.716  0.719
     eigenvectors (columns):
       0.078 -0.731  0.678
       0.930  0.299  0.215
      -0.360  0.614  0.702
     occupation matrix ns (before diag.):
       0.717  0.000  0.002
       0.000  0.713  0.002
       0.002  0.002  0.717
     ------------------------ ATOM  179 ------------------------
     Tr[ns(179)] =   4.16636
     eigenvalues:
       0.680  0.699  0.705
     eigenvectors (columns):
      -0.462 -0.331  0.823
      -0.752  0.637 -0.166
      -0.470 -0.696 -0.543
     occupation matrix ns (before diag.):
       0.699 -0.008 -0.007
      -0.008  0.688 -0.006
      -0.007 -0.006  0.696
     ------------------------ ATOM  180 ------------------------
     Tr[ns(180)] =   4.16629
     eigenvalues:
       0.683  0.695  0.705
     eigenvectors (columns):
      -0.613  0.604 -0.509
       0.664  0.743  0.082
      -0.428  0.288  0.857
     occupation matrix ns (before diag.):
       0.693  0.005 -0.008
       0.005  0.690  0.004
      -0.008  0.004  0.700
     ------------------------ ATOM  181 ------------------------
     Tr[ns(181)] =   5.21931
     eigenvalues:
       0.866  0.871  0.873
     eigenvectors (columns):
       0.062  0.614  0.787
      -0.998  0.028  0.056
       0.012 -0.789  0.615
     occupation matrix ns (before diag.):
       0.872  0.000  0.001
       0.000  0.866  0.000
       0.001  0.000  0.871
     ------------------------ ATOM  182 ------------------------
     Tr[ns(182)] =   5.22879
     eigenvalues:
       0.870  0.871  0.874
     eigenvectors (columns):
      -0.084 -0.294  0.952
       0.046 -0.955 -0.292
       0.995  0.019  0.094
     occupation matrix ns (before diag.):
       0.874 -0.001  0.000
      -0.001  0.871 -0.000
       0.000 -0.000  0.870
     ------------------------ ATOM  183 ------------------------
     Tr[ns(183)] =   5.22158
     eigenvalues:
       0.869  0.870  0.873
     eigenvectors (columns):
       0.443 -0.180 -0.878
       0.824  0.467  0.320
       0.353 -0.866  0.355
     occupation matrix ns (before diag.):
       0.872 -0.001 -0.001
      -0.001  0.869  0.000
      -0.001  0.000  0.870
     ------------------------ ATOM  184 ------------------------
     Tr[ns(184)] =   5.22882
     eigenvalues:
       0.869  0.872  0.873
     eigenvectors (columns):
       0.967 -0.254 -0.036
       0.057  0.077  0.995
       0.250  0.964 -0.089
     occupation matrix ns (before diag.):
       0.870 -0.000 -0.001
      -0.000  0.873 -0.000
      -0.001 -0.000  0.871
     ------------------------ ATOM  185 ------------------------
     Tr[ns(185)] =   4.16421
     eigenvalues:
       0.682  0.698  0.702
     eigenvectors (columns):
       0.561  0.177 -0.809
       0.593  0.596  0.542
      -0.578  0.783 -0.229
     occupation matrix ns (before diag.):
       0.695 -0.007  0.006
      -0.007  0.694  0.005
       0.006  0.005  0.693
     ------------------------ ATOM  186 ------------------------
     Tr[ns(186)] =   4.30001
     eigenvalues:
       0.711  0.719  0.720
     eigenvectors (columns):
      -0.875  0.362 -0.321
       0.375  0.091 -0.922
       0.305  0.928  0.215
     occupation matrix ns (before diag.):
       0.713  0.003  0.002
       0.003  0.719 -0.001
       0.002 -0.001  0.718
     ------------------------ ATOM  187 ------------------------
     Tr[ns(187)] =   4.09517
     eigenvalues:
       0.671  0.680  0.696
     eigenvectors (columns):
      -0.230  0.967  0.110
       0.748  0.247 -0.616
       0.623  0.059  0.780
     occupation matrix ns (before diag.):
       0.680  0.000  0.003
       0.000  0.681 -0.012
       0.003 -0.012  0.686
     ------------------------ ATOM  188 ------------------------
     Tr[ns(188)] =   4.19655
     eigenvalues:
       0.686  0.703  0.709
     eigenvectors (columns):
       0.458  0.732  0.505
      -0.674  0.656 -0.340
      -0.580 -0.185  0.793
     occupation matrix ns (before diag.):
       0.701  0.004  0.007
       0.004  0.696 -0.008
       0.007 -0.008  0.701
     ------------------------ ATOM  189 ------------------------
     Tr[ns(189)] =   5.21396
     eigenvalues:
       0.867  0.869  0.870
     eigenvectors (columns):
      -0.105 -0.305 -0.946
       0.971  0.173 -0.164
      -0.214  0.936 -0.278
     occupation matrix ns (before diag.):
       0.870  0.000  0.000
       0.000  0.867  0.001
       0.000  0.001  0.869
     ------------------------ ATOM  190 ------------------------
     Tr[ns(190)] =   5.21547
     eigenvalues:
       0.867  0.869  0.872
     eigenvectors (columns):
       0.968 -0.060 -0.244
      -0.124  0.732 -0.670
       0.219  0.679  0.701
     occupation matrix ns (before diag.):
       0.867  0.001 -0.001
       0.001  0.870 -0.001
      -0.001 -0.001  0.870
     ------------------------ ATOM  191 ------------------------
     Tr[ns(191)] =   5.34019
     eigenvalues:
       0.889  0.890  0.891
     eigenvectors (columns):
      -0.105  0.993  0.061
       0.623  0.018  0.782
      -0.775 -0.120  0.620
     occupation matrix ns (before diag.):
       0.890  0.000  0.000
       0.000  0.890  0.001
       0.000  0.001  0.890
     ------------------------ ATOM  192 ------------------------
     Tr[ns(192)] =   5.35970
     eigenvalues:
       0.893  0.893  0.894
     eigenvectors (columns):
       0.736 -0.150 -0.661
       0.663 -0.041  0.747
       0.139  0.988 -0.069
     occupation matrix ns (before diag.):
       0.893 -0.000 -0.000
      -0.000  0.893 -0.000
      -0.000 -0.000  0.893
     ------------------------ ATOM  193 ------------------------
     Tr[ns(193)] =   4.08004
     eigenvalues:
       0.669  0.678  0.693
     eigenvectors (columns):
       0.705  0.017 -0.709
      -0.697  0.203 -0.688
       0.132  0.979  0.155
     occupation matrix ns (before diag.):
       0.681  0.012 -0.003
       0.012  0.681 -0.001
      -0.003 -0.001  0.678
     ------------------------ ATOM  194 ------------------------
     Tr[ns(194)] =   3.90163
     eigenvalues:
       0.644  0.652  0.654
     eigenvectors (columns):
      -0.169  0.457 -0.873
      -0.264  0.833  0.487
       0.950  0.313 -0.020
     occupation matrix ns (before diag.):
       0.654 -0.001  0.001
      -0.001  0.652  0.002
       0.001  0.002  0.645
     ------------------------ ATOM  195 ------------------------
     Tr[ns(195)] =   4.09154
     eigenvalues:
       0.669  0.681  0.696
     eigenvectors (columns):
       0.757 -0.011 -0.654
      -0.142 -0.979 -0.147
       0.638 -0.204  0.742
     occupation matrix ns (before diag.):
       0.681  0.003 -0.013
       0.003  0.681 -0.001
      -0.013 -0.001  0.684
     ------------------------ ATOM  196 ------------------------
     Tr[ns(196)] =   4.10123
     eigenvalues:
       0.669  0.686  0.696
     eigenvectors (columns):
      -0.097  0.985  0.145
       0.718 -0.031  0.695
       0.689  0.172 -0.704
     occupation matrix ns (before diag.):
       0.686  0.002  0.000
       0.002  0.682 -0.013
       0.000 -0.013  0.683
     ------------------------ ATOM  197 ------------------------
     Tr[ns(197)] =   5.34418
     eigenvalues:
       0.890  0.891  0.891
     eigenvectors (columns):
      -0.413  0.314 -0.855
       0.785 -0.353 -0.509
       0.461  0.881  0.101
     occupation matrix ns (before diag.):
       0.891  0.000  0.000
       0.000  0.891 -0.000
       0.000 -0.000  0.891
     ------------------------ ATOM  198 ------------------------
     Tr[ns(198)] =   5.33806
     eigenvalues:
       0.889  0.890  0.891
     eigenvectors (columns):
      -0.072  0.706 -0.704
       0.359  0.677  0.642
       0.930 -0.207 -0.302
     occupation matrix ns (before diag.):
       0.890 -0.000  0.000
      -0.000  0.890 -0.000
       0.000 -0.000  0.889
     ------------------------ ATOM  199 ------------------------
     Tr[ns(199)] =   5.20258
     eigenvalues:
       0.864  0.868  0.870
     eigenvectors (columns):
      -0.097  0.734 -0.672
      -0.293  0.625  0.724
       0.951  0.267  0.154
     occupation matrix ns (before diag.):
       0.869 -0.001  0.000
      -0.001  0.868  0.001
       0.000  0.001  0.864
     ------------------------ ATOM  200 ------------------------
     Tr[ns(200)] =   5.36101
     eigenvalues:
       0.892  0.894  0.895
     eigenvectors (columns):
      -0.560  0.775  0.291
       0.428  0.572 -0.700
      -0.709 -0.267 -0.652
     occupation matrix ns (before diag.):
       0.893  0.000 -0.001
       0.000  0.894  0.001
      -0.001  0.001  0.893
     ------------------------ ATOM  201 ------------------------
     Tr[ns(201)] =   4.00111
     eigenvalues:
       0.659  0.661  0.681
     eigenvectors (columns):
       0.620  0.488  0.614
      -0.779  0.286  0.558
       0.097 -0.825  0.557
     occupation matrix ns (before diag.):
       0.668  0.008  0.007
       0.008  0.666  0.006
       0.007  0.006  0.667
     ------------------------ ATOM  202 ------------------------
     Tr[ns(202)] =   4.20733
     eigenvalues:
       0.684  0.707  0.712
     eigenvectors (columns):
      -0.391  0.170 -0.905
      -0.542  0.752  0.375
       0.744  0.637 -0.202
     occupation matrix ns (before diag.):
       0.708 -0.007  0.008
      -0.007  0.701  0.009
       0.008  0.009  0.695
     ------------------------ ATOM  203 ------------------------
     Tr[ns(203)] =   4.18882
     eigenvalues:
       0.687  0.699  0.708
     eigenvectors (columns):
       0.331 -0.043 -0.943
      -0.602  0.760 -0.246
       0.727  0.649  0.226
     occupation matrix ns (before diag.):
       0.706  0.005 -0.005
       0.005  0.695  0.005
      -0.005  0.005  0.693
     ------------------------ ATOM  204 ------------------------
     Tr[ns(204)] =   3.99531
     eigenvalues:
       0.653  0.663  0.681
     eigenvectors (columns):
       0.383  0.565  0.731
       0.123 -0.816  0.565
       0.916 -0.126 -0.382
     occupation matrix ns (before diag.):
       0.671  0.007 -0.009
       0.007  0.669 -0.005
      -0.009 -0.005  0.657
     ------------------------ ATOM  205 ------------------------
     Tr[ns(205)] =   5.35308
     eigenvalues:
       0.891  0.893  0.893
     eigenvectors (columns):
       0.155 -0.163 -0.974
      -0.576  0.787 -0.223
       0.803  0.596  0.028
     occupation matrix ns (before diag.):
       0.893  0.000 -0.000
       0.000  0.892  0.001
      -0.000  0.001  0.892
     ------------------------ ATOM  206 ------------------------
     Tr[ns(206)] =   5.23209
     eigenvalues:
       0.869  0.872  0.875
     eigenvectors (columns):
       0.168 -0.096 -0.981
      -0.530  0.830 -0.172
       0.831  0.549  0.089
     occupation matrix ns (before diag.):
       0.875  0.001 -0.001
       0.001  0.871  0.001
      -0.001  0.001  0.870
     ------------------------ ATOM  207 ------------------------
     Tr[ns(207)] =   5.20257
     eigenvalues:
       0.865  0.867  0.870
     eigenvectors (columns):
      -0.051  0.099 -0.994
       0.355  0.932  0.075
       0.933 -0.349 -0.082
     occupation matrix ns (before diag.):
       0.870 -0.000  0.000
      -0.000  0.866 -0.001
       0.000 -0.001  0.865
     ------------------------ ATOM  208 ------------------------
     Tr[ns(208)] =   5.34238
     eigenvalues:
       0.890  0.890  0.892
     eigenvectors (columns):
       0.392 -0.750  0.532
      -0.017 -0.584 -0.812
       0.920  0.309 -0.241
     occupation matrix ns (before diag.):
       0.890 -0.001 -0.000
      -0.001  0.891  0.000
      -0.000  0.000  0.890
     ------------------------ ATOM  209 ------------------------
     Tr[ns(209)] =   4.30864
     eigenvalues:
       0.707  0.723  0.725
     eigenvectors (columns):
      -0.156 -0.427 -0.891
       0.050  0.897 -0.438
       0.987 -0.113 -0.118
     occupation matrix ns (before diag.):
       0.724  0.001  0.003
       0.001  0.723 -0.001
       0.003 -0.001  0.707
     ------------------------ ATOM  210 ------------------------
     Tr[ns(210)] =   4.18160
     eigenvalues:
       0.683  0.702  0.706
     eigenvectors (columns):
      -0.549  0.759 -0.351
      -0.520 -0.638 -0.568
      -0.655 -0.129  0.744
     occupation matrix ns (before diag.):
       0.697 -0.005 -0.008
      -0.005  0.698 -0.008
      -0.008 -0.008  0.696
     ------------------------ ATOM  211 ------------------------
     Tr[ns(211)] =   4.19775
     eigenvalues:
       0.690  0.704  0.704
     eigenvectors (columns):
       0.547 -0.712  0.440
       0.622 -0.006 -0.783
      -0.560 -0.703 -0.439
     occupation matrix ns (before diag.):
       0.700 -0.005  0.004
      -0.005  0.699  0.005
       0.004  0.005  0.700
     ------------------------ ATOM  212 ------------------------
     Tr[ns(212)] =   4.30510
     eigenvalues:
       0.712  0.719  0.722
     eigenvectors (columns):
       0.307 -0.090 -0.947
       0.632 -0.725  0.274
      -0.712 -0.683 -0.166
     occupation matrix ns (before diag.):
       0.721 -0.002  0.002
      -0.002  0.716  0.003
       0.002  0.003  0.715
     ------------------------ ATOM  213 ------------------------
     Tr[ns(213)] =   5.23137
     eigenvalues:
       0.870  0.872  0.874
     eigenvectors (columns):
       0.086 -0.992 -0.097
      -0.058  0.092 -0.994
       0.995  0.091 -0.049
     occupation matrix ns (before diag.):
       0.872  0.000 -0.000
       0.000  0.874  0.000
      -0.000  0.000  0.870
     ------------------------ ATOM  214 ------------------------
     Tr[ns(214)] =   5.21502
     eigenvalues:
       0.868  0.869  0.871
     eigenvectors (columns):
      -0.345  0.939 -0.014
       0.567  0.220  0.794
      -0.748 -0.266  0.608
     occupation matrix ns (before diag.):
       0.869  0.000 -0.000
       0.000  0.870  0.002
      -0.000  0.002  0.869
     ------------------------ ATOM  215 ------------------------
     Tr[ns(215)] =   5.22492
     eigenvalues:
       0.868  0.870  0.874
     eigenvectors (columns):
       0.222  0.407 -0.886
      -0.967  0.206 -0.148
       0.122  0.890  0.440
     occupation matrix ns (before diag.):
       0.873  0.001 -0.002
       0.001  0.869 -0.000
      -0.002 -0.000  0.871
     ------------------------ ATOM  216 ------------------------
     Tr[ns(216)] =   5.24053
     eigenvalues:
       0.871  0.873  0.876
     eigenvectors (columns):
       0.225 -0.085 -0.971
       0.130  0.990 -0.057
       0.966 -0.113  0.234
     occupation matrix ns (before diag.):
       0.875  0.000 -0.001
       0.000  0.873 -0.000
      -0.001 -0.000  0.872

     Number of occupied Hubbard levels = 1019.7800

     Threshold (ethr) on eigenvalues was too large:
     Diagonalizing with lowered threshold

     Davidson diagonalization with overlap
     ethr =  1.32E-04,  avg # of iterations = 11.8

     total cpu time spent up to now is     2811.1 secs

     total energy              =  -34814.41373729 Ry
     estimated scf accuracy    <       3.98919821 Ry

     iteration #  2     ecut=   120.00 Ry     beta= 0.65
     Davidson diagonalization with overlap
     ethr =  1.32E-04,  avg # of iterations =  2.0

     total cpu time spent up to now is     3806.9 secs

     total energy              =  -34814.86941660 Ry
     estimated scf accuracy    <       1.19378820 Ry

     iteration #  3     ecut=   120.00 Ry     beta= 0.65
     Davidson diagonalization with overlap
     ethr =  3.95E-05,  avg # of iterations = 15.2

     total cpu time spent up to now is     5196.2 secs

     total energy              =  -34814.70147815 Ry
     estimated scf accuracy    <       1.87148289 Ry

     iteration #  4     ecut=   120.00 Ry     beta= 0.65
     Davidson diagonalization with overlap
     ethr =  3.95E-05,  avg # of iterations = 17.5

     total cpu time spent up to now is     6496.5 secs

     total energy              =  -34814.98788685 Ry
     estimated scf accuracy    <       1.44503569 Ry

     iteration #  5     ecut=   120.00 Ry     beta= 0.65
     Davidson diagonalization with overlap
