
     Program PWSCF v.7.3.1 starts on 13Jun2025 at 13:24:10 

     This program is part of the open-source Quantum ESPRESSO suite
     for quantum simulation of materials; please cite
         "P. Giannozzi et al., J. Phys.:Condens. Matter 21 395502 (2009);
         "P. Giannozzi et al., J. Phys.:Condens. Matter 29 465901 (2017);
         "P. Giannozzi et al., J. Chem. Phys. 152 154105 (2020);
          URL http://www.quantum-espresso.org", 
     in publications or presentations arising from this work. More details at
     http://www.quantum-espresso.org/quote

     Parallel version (MPI), running on   640 processors

     MPI processes distributed on     5 nodes
     434591 MiB available memory on the printing compute node when the environment starts

     Reading input from In0.0Ga1.0As0.75Sb0.25_cube_3x3x3.1.scf.in
Warning: card &CELL ignored
Warning: card   CELL_DOFREE = 'ALL', ignored
Warning: card / ignored

     Current dimensions of program PWSCF are:
     Max number of different atomic species (ntypx) = 10
     Max number of k-points (npk) =  40000
     Max angular momentum in pseudopotentials (lmaxx) =  4

     K-points division:     npool     =       8
     R & G space division:  proc/nbgrp/npool/nimage =      80
     Subspace diagonalization in iterative solution of the eigenvalue problem:
     one sub-group per band group will be used
     custom distributed-memory algorithm (size of sub-group:  8*  8 procs)


     Parallelization info
     --------------------
     sticks:   dense  smooth     PW     G-vecs:    dense   smooth      PW
     Min         515     515    132                78722    78722   10296
     Max         517     517    133                78726    78726   10303
     Sum       41245   41245  10629              6297865  6297865  823993

     Using Slab Decomposition



     bravais-lattice index     =            1
     lattice parameter (alat)  =      32.8555  a.u.
     unit-cell volume          =   35467.0524 (a.u.)^3
     number of atoms/cell      =          216
     number of atomic types    =            4
     number of electrons       =      3024.00
     number of Kohn-Sham states=         2160
     kinetic-energy cutoff     =     120.0000  Ry
     charge density cutoff     =     480.0000  Ry
     scf convergence threshold =      1.0E-05
     mixing beta               =       0.6500
     number of iterations used =            8  plain     mixing
     Exchange-correlation= PBE
                           (   1   4   3   4   0   0   0)
     Hubbard projectors: atomic
     Hubbard parameters of DFT+U (Dudarev formulation) in eV:
     U(As-4p) =  5.8400
     U(Ga-4p) = -3.2650
     U(In-5p) = -0.9725
     U(Sb-5p) =  4.8900

     Internal variables: lda_plus_u =T, lda_plus_u_kind = 0

     celldm(1)=  32.855522  celldm(2)=   0.000000  celldm(3)=   0.000000
     celldm(4)=   0.000000  celldm(5)=   0.000000  celldm(6)=   0.000000

     crystal axes: (cart. coord. in units of alat)
               a(1) = (   1.000000   0.000000   0.000000 )  
               a(2) = (   0.000000   1.000000   0.000000 )  
               a(3) = (   0.000000   0.000000   1.000000 )  

     reciprocal axes: (cart. coord. in units 2 pi/alat)
               b(1) = (  1.000000  0.000000  0.000000 )  
               b(2) = (  0.000000  1.000000  0.000000 )  
               b(3) = (  0.000000  0.000000  1.000000 )  


     PseudoPot. # 1 for As read from file:
     /work/i254/i254/gentles/data/pseudos/As.pbe.NC-SR.standard.v0.5.UPF
     MD5 check sum: bfe1a874457ce592347346129958e7cf
     Pseudo is Norm-conserving + core correction, Zval = 15.0
     Generated using ONCVPSP code by D. R. Hamann
     Using radial grid of 1358 points,  6 beta functions with: 
                l(1) =   0
                l(2) =   0
                l(3) =   1
                l(4) =   1
                l(5) =   2
                l(6) =   2

     PseudoPot. # 2 for Ga read from file:
     /work/i254/i254/gentles/data/pseudos/Ga.pbe.NC-SR.standard.v0.5.UPF
     MD5 check sum: 2bb81bf6f0a8d9832cf3329850435ecf
     Pseudo is Norm-conserving + core correction, Zval = 13.0
     Generated using ONCVPSP code by D. R. Hamann
     Using radial grid of 1902 points,  6 beta functions with: 
                l(1) =   0
                l(2) =   0
                l(3) =   1
                l(4) =   1
                l(5) =   2
                l(6) =   2

     PseudoPot. # 3 for In read from file:
     /work/i254/i254/gentles/data/pseudos/In.pbe.NC-SR.standard.v0.5.UPF
     MD5 check sum: 835f4bf908c982ff75c88e16816a8d7f
     Pseudo is Norm-conserving + core correction, Zval = 13.0
     Generated using ONCVPSP code by D. R. Hamann
     Using radial grid of 1964 points,  6 beta functions with: 
                l(1) =   0
                l(2) =   0
                l(3) =   1
                l(4) =   1
                l(5) =   2
                l(6) =   2

     PseudoPot. # 4 for Sb read from file:
     /work/i254/i254/gentles/data/pseudos/Sb.pbe.NC-SR.standard.v0.5.UPF
     MD5 check sum: 127f69b6101c45666faeae1b5d611565
     Pseudo is Norm-conserving + core correction, Zval = 15.0
     Generated using ONCVPSP code by D. R. Hamann
     Using radial grid of 1434 points,  6 beta functions with: 
                l(1) =   0
                l(2) =   0
                l(3) =   1
                l(4) =   1
                l(5) =   2
                l(6) =   2

     atomic species   valence    mass     pseudopotential
     As               15.00    74.92160     As( 1.00)
     Ga               13.00    69.72300     Ga( 1.00)
     In               13.00   114.81800     In( 1.00)
     Sb               15.00   121.76000     Sb( 1.00)

     No symmetry found



   Cartesian axes

     site n.     atom                  positions (alat units)
         1        Ga     tau(   1) = (  -0.0007600   0.0019500  -0.0011590  )
         2        Ga     tau(   2) = (   0.0099390   0.1675200   0.1663050  )
         3        Ga     tau(   3) = (   0.1620020   0.0044800   0.1713410  )
         4        Ga     tau(   4) = (   0.1647230   0.1653760  -0.0024410  )
         5        As     tau(   5) = (   0.0846680   0.0831310   0.0811930  )
         6        As     tau(   6) = (   0.0873140   0.2498800   0.2530100  )
         7        As     tau(   7) = (   0.2462440   0.0845160   0.2539160  )
         8        As     tau(   8) = (   0.2439940   0.2472620   0.0831950  )
         9        Ga     tau(   9) = (   0.0038740  -0.0050640   0.3393640  )
        10        Ga     tau(  10) = (   0.0032550   0.1616400   0.5056210  )
        11        Ga     tau(  11) = (   0.1625360  -0.0048640   0.4966590  )
        12        Ga     tau(  12) = (   0.1663970   0.1666730   0.3380000  )
        13        As     tau(  13) = (   0.0836610   0.0820010   0.4187890  )
        14        As     tau(  14) = (   0.0797750   0.2510600   0.5846610  )
        15        Sb     tau(  15) = (   0.2489340   0.0839200   0.5827060  )
        16        As     tau(  16) = (   0.2476460   0.2513440   0.4189710  )
        17        Ga     tau(  17) = (  -0.0015210  -0.0007520   0.6683820  )
        18        Ga     tau(  18) = (  -0.0016670   0.1653250   0.8320320  )
        19        Ga     tau(  19) = (   0.1629960  -0.0007910   0.8328790  )
        20        Ga     tau(  20) = (   0.1554470   0.1670360   0.6672050  )
        21        As     tau(  21) = (   0.0790860   0.0814920   0.7509310  )
        22        As     tau(  22) = (   0.0829370   0.2478740   0.9122540  )
        23        As     tau(  23) = (   0.2466500   0.0811260   0.9137070  )
        24        Sb     tau(  24) = (   0.2485190   0.2511380   0.7485600  )
        25        Ga     tau(  25) = (  -0.0005350   0.3332430  -0.0124760  )
        26        Ga     tau(  26) = (  -0.0070660   0.5007870   0.1647250  )
        27        Ga     tau(  27) = (   0.1698920   0.3300710   0.1717210  )
        28        Ga     tau(  28) = (   0.1698660   0.5077450  -0.0044740  )
        29        Sb     tau(  29) = (   0.0844520   0.4162260   0.0805830  )
        30        Sb     tau(  30) = (   0.0834850   0.5849830   0.2502710  )
        31        As     tau(  31) = (   0.2487630   0.4166200   0.2538210  )
        32        As     tau(  32) = (   0.2496290   0.5866440   0.0831600  )
        33        Ga     tau(  33) = (   0.0059500   0.3375240   0.3308760  )
        34        Ga     tau(  34) = (   0.0001580   0.4986460   0.5006630  )
        35        Ga     tau(  35) = (   0.1655080   0.3311040   0.5022360  )
        36        Ga     tau(  36) = (   0.1678210   0.4958950   0.3400180  )
        37        As     tau(  37) = (   0.0842420   0.4152060   0.4202900  )
        38        As     tau(  38) = (   0.0812340   0.5808340   0.5841570  )
        39        As     tau(  39) = (   0.2495370   0.4159180   0.5804050  )
        40        As     tau(  40) = (   0.2491910   0.5804470   0.4195000  )
        41        Ga     tau(  41) = (  -0.0026160   0.3329750   0.6670540  )
        42        Ga     tau(  42) = (  -0.0011520   0.5011280   0.8305070  )
        43        Ga     tau(  43) = (   0.1621510   0.3384290   0.8353630  )
        44        Ga     tau(  44) = (   0.1619690   0.4932850   0.6618950  )
        45        As     tau(  45) = (   0.0798070   0.4161890   0.7489530  )
        46        As     tau(  46) = (   0.0793540   0.5841440   0.9156560  )
        47        As     tau(  47) = (   0.2478730   0.4189510   0.9165570  )
        48        Sb     tau(  48) = (   0.2483630   0.5816150   0.7478210  )
        49        Ga     tau(  49) = (  -0.0009890   0.6675610  -0.0006940  )
        50        Ga     tau(  50) = (  -0.0003810   0.8330840   0.1660710  )
        51        Ga     tau(  51) = (   0.1686410   0.6733630   0.1607830  )
        52        Ga     tau(  52) = (   0.1549960   0.8350260  -0.0012900  )
        53        As     tau(  53) = (   0.0791900   0.7508580   0.0819250  )
        54        As     tau(  54) = (   0.0823250   0.9159490   0.2496940  )
        55        As     tau(  55) = (   0.2514680   0.7492450   0.2478760  )
        56        Sb     tau(  56) = (   0.2471800   0.9162530   0.0843800  )
        57        Ga     tau(  57) = (  -0.0080330   0.6682070   0.3357460  )
        58        Ga     tau(  58) = (  -0.0049730   0.8365210   0.5075140  )
        59        Ga     tau(  59) = (   0.1687180   0.6609970   0.5058750  )
        60        Ga     tau(  60) = (   0.1706360   0.8359690   0.3265090  )
        61        Sb     tau(  61) = (   0.0840510   0.7521250   0.4196080  )
        62        As     tau(  62) = (   0.0814860   0.9171450   0.5859790  )
        63        As     tau(  63) = (   0.2467850   0.7498760   0.5859870  )
        64        As     tau(  64) = (   0.2474970   0.9182900   0.4127730  )
        65        Ga     tau(  65) = (   0.0000860   0.6669740   0.6667790  )
        66        Ga     tau(  66) = (  -0.0014930   0.8343340   0.8308970  )
        67        Ga     tau(  67) = (   0.1563890   0.6670840   0.8312290  )
        68        Ga     tau(  68) = (   0.1647480   0.8334550   0.6677780  )
        69        As     tau(  69) = (   0.0801160   0.7520800   0.7481800  )
        70        As     tau(  70) = (   0.0782550   0.9186680   0.9142070  )
        71        Sb     tau(  71) = (   0.2486090   0.7500240   0.9161000  )
        72        As     tau(  72) = (   0.2467200   0.9169420   0.7517710  )
        73        Ga     tau(  73) = (   0.3318920  -0.0035180  -0.0107570  )
        74        Ga     tau(  74) = (   0.3240640   0.1655950   0.1663160  )
        75        Ga     tau(  75) = (   0.5029280  -0.0042860   0.1708920  )
        76        Ga     tau(  76) = (   0.5045140   0.1616970  -0.0066790  )
        77        Sb     tau(  77) = (   0.4153520   0.0800460   0.0820680  )
        78        Sb     tau(  78) = (   0.4154880   0.2496510   0.2534730  )
        79        As     tau(  79) = (   0.5861850   0.0796130   0.2513030  )
        80        Sb     tau(  80) = (   0.5872020   0.2487450   0.0811730  )
        81        Ga     tau(  81) = (   0.3327250   0.0023310   0.3339880  )
        82        Ga     tau(  82) = (   0.3367490   0.1727060   0.4966380  )
        83        Ga     tau(  83) = (   0.4989500   0.0112300   0.5032650  )
        84        Ga     tau(  84) = (   0.5058920   0.1622670   0.3368370  )
        85        As     tau(  85) = (   0.4165580   0.0862220   0.4162490  )
        86        As     tau(  86) = (   0.4190130   0.2513520   0.5827810  )
        87        As     tau(  87) = (   0.5847590   0.0870680   0.5868900  )
        88        As     tau(  88) = (   0.5836470   0.2486510   0.4207830  )
        89        Ga     tau(  89) = (   0.3324730   0.0000510   0.6759440  )
        90        Ga     tau(  90) = (   0.3325060   0.1578710   0.8312180  )
        91        Ga     tau(  91) = (   0.5036510  -0.0011150   0.8315300  )
        92        Ga     tau(  92) = (   0.5000810   0.1677580   0.6674660  )
        93        As     tau(  93) = (   0.4199800   0.0816380   0.7510100  )
        94        Sb     tau(  94) = (   0.4155460   0.2512350   0.9129750  )
        95        As     tau(  95) = (   0.5874650   0.0809200   0.9117230  )
        96        As     tau(  96) = (   0.5848550   0.2487390   0.7480730  )
        97        Ga     tau(  97) = (   0.3220890   0.3313660   0.0008460  )
        98        Ga     tau(  98) = (   0.3254570   0.5035870   0.1705850  )
        99        Ga     tau(  99) = (   0.5048790   0.3377350   0.1706560  )
       100        Ga     tau( 100) = (   0.5020430   0.4971880  -0.0115170  )
       101        Sb     tau( 101) = (   0.4133820   0.4184450   0.0822030  )
       102        As     tau( 102) = (   0.4106350   0.5821270   0.2503220  )
       103        As     tau( 103) = (   0.5826030   0.4190990   0.2561160  )
       104        Sb     tau( 104) = (   0.5832650   0.5825200   0.0813450  )
       105        Ga     tau( 105) = (   0.3286720   0.3374560   0.3404730  )
       106        Ga     tau( 106) = (   0.3334350   0.5010680   0.5009150  )
       107        Ga     tau( 107) = (   0.5014450   0.3325430   0.5010960  )
       108        Ga     tau( 108) = (   0.4918400   0.4970890   0.3322550  )
       109        As     tau( 109) = (   0.4151370   0.4161720   0.4207560  )
       110        As     tau( 110) = (   0.4158310   0.5833710   0.5843710  )
       111        As     tau( 111) = (   0.5841830   0.4138060   0.5847370  )
       112        Sb     tau( 112) = (   0.5835390   0.5805050   0.4189830  )
       113        Ga     tau( 113) = (   0.3362390   0.3367360   0.6612460  )
       114        Ga     tau( 114) = (   0.3369260   0.4957060   0.8349200  )
       115        Ga     tau( 115) = (   0.5045970   0.3363060   0.8246450  )
       116        Ga     tau( 116) = (   0.4972310   0.4972480   0.6626510  )
       117        As     tau( 117) = (   0.4176590   0.4166630   0.7466550  )
       118        As     tau( 118) = (   0.4170850   0.5829900   0.9152820  )
       119        As     tau( 119) = (   0.5868180   0.4150450   0.9094500  )
       120        Sb     tau( 120) = (   0.5843990   0.5840300   0.7501110  )
       121        Ga     tau( 121) = (   0.3370740   0.6630840   0.0029110  )
       122        Ga     tau( 122) = (   0.3371670   0.8301730   0.1691650  )
       123        Ga     tau( 123) = (   0.4902510   0.6656900   0.1652690  )
       124        Ga     tau( 124) = (   0.5009140   0.8340140  -0.0003630  )
       125        As     tau( 125) = (   0.4165860   0.7511300   0.0815730  )
       126        As     tau( 126) = (   0.4146270   0.9182180   0.2509080  )
       127        Sb     tau( 127) = (   0.5821600   0.7509210   0.2483380  )
       128        As     tau( 128) = (   0.5828230   0.9187570   0.0809110  )
       129        Ga     tau( 129) = (   0.3263300   0.6609180   0.3315800  )
       130        Ga     tau( 130) = (   0.3207990   0.8346680   0.5003610  )
       131        Ga     tau( 131) = (   0.5017620   0.6674510   0.5099210  )
       132        Ga     tau( 132) = (   0.4944890   0.8381470   0.3339050  )
       133        Sb     tau( 133) = (   0.4115000   0.7479860   0.4196770  )
       134        Sb     tau( 134) = (   0.4165100   0.9153650   0.5858660  )
       135        As     tau( 135) = (   0.5873260   0.7494450   0.5887780  )
       136        Sb     tau( 136) = (   0.5850470   0.9212970   0.4194940  )
       137        Ga     tau( 137) = (   0.3369270   0.6713940   0.6641390  )
       138        Ga     tau( 138) = (   0.3359810   0.8370080   0.8284420  )
       139        Ga     tau( 139) = (   0.4952720   0.6714580   0.8360790  )
       140        Ga     tau( 140) = (   0.5071640   0.8300490   0.6722110  )
       141        As     tau( 141) = (   0.4176960   0.7520280   0.7493570  )
       142        As     tau( 142) = (   0.4198740   0.9157680   0.9122660  )
       143        As     tau( 143) = (   0.5824260   0.7533760   0.9140740  )
       144        As     tau( 144) = (   0.5874820   0.9173080   0.7502870  )
       145        Ga     tau( 145) = (   0.6666530  -0.0021610  -0.0040620  )
       146        Ga     tau( 146) = (   0.6685470   0.1559440   0.1649950  )
       147        Ga     tau( 147) = (   0.8331530  -0.0045990   0.1579960  )
       148        Ga     tau( 148) = (   0.8281430   0.1612100  -0.0057250  )
       149        As     tau( 149) = (   0.7493060   0.0776300   0.0783000  )
       150        Sb     tau( 150) = (   0.7472210   0.2492590   0.2536070  )
       151        Sb     tau( 151) = (   0.9186140   0.0802330   0.2493530  )
       152        Sb     tau( 152) = (   0.9174410   0.2483530   0.0801020  )
       153        Ga     tau( 153) = (   0.6745770   0.0033140   0.3312760  )
       154        Ga     tau( 154) = (   0.6677590   0.1681420   0.5038100  )
       155        Ga     tau( 155) = (   0.8332020  -0.0002280   0.5026340  )
       156        Ga     tau( 156) = (   0.8310060   0.1621770   0.3413390  )
       157        As     tau( 157) = (   0.7494660   0.0824480   0.4227570  )
       158        As     tau( 158) = (   0.7508300   0.2501820   0.5858230  )
       159        As     tau( 159) = (   0.9165780   0.0816060   0.5855680  )
       160        Sb     tau( 160) = (   0.9197270   0.2519500   0.4204210  )
       161        Ga     tau( 161) = (   0.6681960   0.0012500   0.6673850  )
       162        Ga     tau( 162) = (   0.6680560   0.1656170   0.8293780  )
       163        Ga     tau( 163) = (   0.8332710   0.0002110   0.8310360  )
       164        Ga     tau( 164) = (   0.8341870   0.1662930   0.6665540  )
       165        As     tau( 165) = (   0.7514420   0.0836540   0.7483330  )
       166        As     tau( 166) = (   0.7516320   0.2476280   0.9100700  )
       167        As     tau( 167) = (   0.9153780   0.0823040   0.9145890  )
       168        As     tau( 168) = (   0.9169300   0.2484870   0.7488580  )
       169        Ga     tau( 169) = (   0.6699330   0.3319950  -0.0112660  )
       170        Ga     tau( 170) = (   0.6677170   0.5003150   0.1757140  )
       171        Ga     tau( 171) = (   0.8388140   0.3365030   0.1723240  )
       172        Ga     tau( 172) = (   0.8382750   0.5066750  -0.0060270  )
       173        Sb     tau( 173) = (   0.7523610   0.4190280   0.0810520  )
       174        As     tau( 174) = (   0.7559750   0.5804770   0.2523350  )
       175        As     tau( 175) = (   0.9183630   0.4193350   0.2538380  )
       176        As     tau( 176) = (   0.9170000   0.5858350   0.0811850  )
       177        Ga     tau( 177) = (   0.6616300   0.3369580   0.3418030  )
       178        Ga     tau( 178) = (   0.6712530   0.4959390   0.5073930  )
       179        Ga     tau( 179) = (   0.8311420   0.3372670   0.5069580  )
       180        Ga     tau( 180) = (   0.8340720   0.4980340   0.3385090  )
       181        As     tau( 181) = (   0.7502880   0.4163960   0.4213720  )
       182        As     tau( 182) = (   0.7538010   0.5816250   0.5869250  )
       183        As     tau( 183) = (   0.9167280   0.4187170   0.5860860  )
       184        As     tau( 184) = (   0.9168580   0.5805250   0.4195340  )
       185        Ga     tau( 185) = (   0.6671610   0.3316140   0.6672540  )
       186        Ga     tau( 186) = (   0.6741640   0.4961360   0.8333040  )
       187        Ga     tau( 187) = (   0.8346930   0.3318350   0.8296960  )
       188        Ga     tau( 188) = (   0.8355540   0.5002340   0.6693890  )
       189        As     tau( 189) = (   0.7525500   0.4140710   0.7481990  )
       190        As     tau( 190) = (   0.7535780   0.5849620   0.9112940  )
       191        As     tau( 191) = (   0.9158630   0.4183970   0.9103690  )
       192        As     tau( 192) = (   0.9176280   0.5850530   0.7494720  )
       193        Ga     tau( 193) = (   0.6676490   0.6679880  -0.0106410  )
       194        Ga     tau( 194) = (   0.6673750   0.8420530   0.1642810  )
       195        Ga     tau( 195) = (   0.8370330   0.6638860   0.1690450  )
       196        Ga     tau( 196) = (   0.8410640   0.8373240  -0.0078400  )
       197        Sb     tau( 197) = (   0.7535630   0.7522550   0.0797770  )
       198        As     tau( 198) = (   0.7533700   0.9198690   0.2472760  )
       199        As     tau( 199) = (   0.9162470   0.7518590   0.2493440  )
       200        As     tau( 200) = (   0.9202020   0.9159980   0.0795630  )
       201        Ga     tau( 201) = (   0.6729370   0.6630780   0.3306650  )
       202        Ga     tau( 202) = (   0.6676740   0.8347280   0.5102640  )
       203        Ga     tau( 203) = (   0.8393850   0.6611810   0.5063440  )
       204        Ga     tau( 204) = (   0.8380820   0.8394030   0.3297020  )
       205        Sb     tau( 205) = (   0.7549750   0.7512150   0.4197740  )
       206        As     tau( 206) = (   0.7521080   0.9180030   0.5876420  )
       207        As     tau( 207) = (   0.9162020   0.7493710   0.5875810  )
       208        As     tau( 208) = (   0.9166890   0.9178190   0.4202410  )
       209        Ga     tau( 209) = (   0.6744580   0.6695470   0.6655290  )
       210        Ga     tau( 210) = (   0.6686580   0.8344530   0.8325180  )
       211        Ga     tau( 211) = (   0.8355170   0.6684870   0.8306380  )
       212        Ga     tau( 212) = (   0.8339690   0.8340680   0.6691390  )
       213        As     tau( 213) = (   0.7524010   0.7520650   0.7507850  )
       214        As     tau( 214) = (   0.7519410   0.9170060   0.9138890  )
       215        As     tau( 215) = (   0.9192560   0.7498990   0.9130220  )
       216        As     tau( 216) = (   0.9159240   0.9167900   0.7499020  )

     number of k points=     8
                       cart. coord. in units 2pi/alat
        k(    1) = (   0.0000000   0.0000000   0.0000000), wk =   0.2500000
        k(    2) = (   0.0000000   0.0000000  -0.5000000), wk =   0.2500000
        k(    3) = (   0.0000000  -0.5000000  -0.5000000), wk =   0.2500000
        k(    4) = (  -0.5000000  -0.5000000  -0.5000000), wk =   0.2500000
        k(    5) = (  -0.5000000   0.0000000   0.0000000), wk =   0.2500000
        k(    6) = (   0.0000000  -0.5000000   0.0000000), wk =   0.2500000
        k(    7) = (  -0.5000000   0.0000000   0.5000000), wk =   0.2500000
        k(    8) = (  -0.5000000   0.5000000   0.0000000), wk =   0.2500000

     Dense  grid:  6297865 G-vectors     FFT dimensions: ( 240, 240, 240)

     Estimated max dynamical RAM per process >       2.44 GB

     Estimated total dynamical RAM >    1554.00 GB

     Initial potential from superposition of free atoms

     starting charge    3023.6766, renormalised to    3024.0000

     STARTING HUBBARD OCCUPATIONS:

     =================== HUBBARD OCCUPATIONS ===================
     ------------------------ ATOM    1 ------------------------
     Tr[ns(  1)] =   1.00000
     eigenvalues:
       0.167  0.167  0.167
     eigenvectors (columns):
       1.000  0.000  0.000
       0.000  1.000  0.000
       0.000  0.000  1.000
     occupation matrix ns (before diag.):
       0.167  0.000  0.000
       0.000  0.167  0.000
       0.000  0.000  0.167
     ------------------------ ATOM    2 ------------------------
     Tr[ns(  2)] =   1.00000
     eigenvalues:
       0.167  0.167  0.167
     eigenvectors (columns):
       1.000  0.000  0.000
       0.000  1.000  0.000
       0.000  0.000  1.000
     occupation matrix ns (before diag.):
       0.167  0.000  0.000
       0.000  0.167  0.000
       0.000  0.000  0.167
     ------------------------ ATOM    3 ------------------------
     Tr[ns(  3)] =   1.00000
     eigenvalues:
       0.167  0.167  0.167
     eigenvectors (columns):
       1.000  0.000  0.000
       0.000  1.000  0.000
       0.000  0.000  1.000
     occupation matrix ns (before diag.):
       0.167  0.000  0.000
       0.000  0.167  0.000
       0.000  0.000  0.167
     ------------------------ ATOM    4 ------------------------
     Tr[ns(  4)] =   1.00000
     eigenvalues:
       0.167  0.167  0.167
     eigenvectors (columns):
       1.000  0.000  0.000
       0.000  1.000  0.000
       0.000  0.000  1.000
     occupation matrix ns (before diag.):
       0.167  0.000  0.000
       0.000  0.167  0.000
       0.000  0.000  0.167
     ------------------------ ATOM    5 ------------------------
     Tr[ns(  5)] =   3.00000
     eigenvalues:
       0.500  0.500  0.500
     eigenvectors (columns):
       1.000  0.000  0.000
       0.000  1.000  0.000
       0.000  0.000  1.000
     occupation matrix ns (before diag.):
       0.500  0.000  0.000
       0.000  0.500  0.000
       0.000  0.000  0.500
     ------------------------ ATOM    6 ------------------------
     Tr[ns(  6)] =   3.00000
     eigenvalues:
       0.500  0.500  0.500
     eigenvectors (columns):
       1.000  0.000  0.000
       0.000  1.000  0.000
       0.000  0.000  1.000
     occupation matrix ns (before diag.):
       0.500  0.000  0.000
       0.000  0.500  0.000
       0.000  0.000  0.500
     ------------------------ ATOM    7 ------------------------
     Tr[ns(  7)] =   3.00000
     eigenvalues:
       0.500  0.500  0.500
     eigenvectors (columns):
       1.000  0.000  0.000
       0.000  1.000  0.000
       0.000  0.000  1.000
     occupation matrix ns (before diag.):
       0.500  0.000  0.000
       0.000  0.500  0.000
       0.000  0.000  0.500
     ------------------------ ATOM    8 ------------------------
     Tr[ns(  8)] =   3.00000
     eigenvalues:
       0.500  0.500  0.500
     eigenvectors (columns):
       1.000  0.000  0.000
       0.000  1.000  0.000
       0.000  0.000  1.000
     occupation matrix ns (before diag.):
       0.500  0.000  0.000
       0.000  0.500  0.000
       0.000  0.000  0.500
     ------------------------ ATOM    9 ------------------------
     Tr[ns(  9)] =   1.00000
     eigenvalues:
       0.167  0.167  0.167
     eigenvectors (columns):
       1.000  0.000  0.000
       0.000  1.000  0.000
       0.000  0.000  1.000
     occupation matrix ns (before diag.):
       0.167  0.000  0.000
       0.000  0.167  0.000
       0.000  0.000  0.167
     ------------------------ ATOM   10 ------------------------
     Tr[ns( 10)] =   1.00000
     eigenvalues:
       0.167  0.167  0.167
     eigenvectors (columns):
       1.000  0.000  0.000
       0.000  1.000  0.000
       0.000  0.000  1.000
     occupation matrix ns (before diag.):
       0.167  0.000  0.000
       0.000  0.167  0.000
       0.000  0.000  0.167
     ------------------------ ATOM   11 ------------------------
     Tr[ns( 11)] =   1.00000
     eigenvalues:
       0.167  0.167  0.167
     eigenvectors (columns):
       1.000  0.000  0.000
       0.000  1.000  0.000
       0.000  0.000  1.000
     occupation matrix ns (before diag.):
       0.167  0.000  0.000
       0.000  0.167  0.000
       0.000  0.000  0.167
     ------------------------ ATOM   12 ------------------------
     Tr[ns( 12)] =   1.00000
     eigenvalues:
       0.167  0.167  0.167
     eigenvectors (columns):
       1.000  0.000  0.000
       0.000  1.000  0.000
       0.000  0.000  1.000
     occupation matrix ns (before diag.):
       0.167  0.000  0.000
       0.000  0.167  0.000
       0.000  0.000  0.167
     ------------------------ ATOM   13 ------------------------
     Tr[ns( 13)] =   3.00000
     eigenvalues:
       0.500  0.500  0.500
     eigenvectors (columns):
       1.000  0.000  0.000
       0.000  1.000  0.000
       0.000  0.000  1.000
     occupation matrix ns (before diag.):
       0.500  0.000  0.000
       0.000  0.500  0.000
       0.000  0.000  0.500
     ------------------------ ATOM   14 ------------------------
     Tr[ns( 14)] =   3.00000
     eigenvalues:
       0.500  0.500  0.500
     eigenvectors (columns):
       1.000  0.000  0.000
       0.000  1.000  0.000
       0.000  0.000  1.000
     occupation matrix ns (before diag.):
       0.500  0.000  0.000
       0.000  0.500  0.000
       0.000  0.000  0.500
     ------------------------ ATOM   15 ------------------------
     Tr[ns( 15)] =   3.00000
     eigenvalues:
       0.500  0.500  0.500
     eigenvectors (columns):
       1.000  0.000  0.000
       0.000  1.000  0.000
       0.000  0.000  1.000
     occupation matrix ns (before diag.):
       0.500  0.000  0.000
       0.000  0.500  0.000
       0.000  0.000  0.500
     ------------------------ ATOM   16 ------------------------
     Tr[ns( 16)] =   3.00000
     eigenvalues:
       0.500  0.500  0.500
     eigenvectors (columns):
       1.000  0.000  0.000
       0.000  1.000  0.000
       0.000  0.000  1.000
     occupation matrix ns (before diag.):
       0.500  0.000  0.000
       0.000  0.500  0.000
       0.000  0.000  0.500
     ------------------------ ATOM   17 ------------------------
     Tr[ns( 17)] =   1.00000
     eigenvalues:
       0.167  0.167  0.167
     eigenvectors (columns):
       1.000  0.000  0.000
       0.000  1.000  0.000
       0.000  0.000  1.000
     occupation matrix ns (before diag.):
       0.167  0.000  0.000
       0.000  0.167  0.000
       0.000  0.000  0.167
     ------------------------ ATOM   18 ------------------------
     Tr[ns( 18)] =   1.00000
     eigenvalues:
       0.167  0.167  0.167
     eigenvectors (columns):
       1.000  0.000  0.000
       0.000  1.000  0.000
       0.000  0.000  1.000
     occupation matrix ns (before diag.):
       0.167  0.000  0.000
       0.000  0.167  0.000
       0.000  0.000  0.167
     ------------------------ ATOM   19 ------------------------
     Tr[ns( 19)] =   1.00000
     eigenvalues:
       0.167  0.167  0.167
     eigenvectors (columns):
       1.000  0.000  0.000
       0.000  1.000  0.000
       0.000  0.000  1.000
     occupation matrix ns (before diag.):
       0.167  0.000  0.000
       0.000  0.167  0.000
       0.000  0.000  0.167
     ------------------------ ATOM   20 ------------------------
     Tr[ns( 20)] =   1.00000
     eigenvalues:
       0.167  0.167  0.167
     eigenvectors (columns):
       1.000  0.000  0.000
       0.000  1.000  0.000
       0.000  0.000  1.000
     occupation matrix ns (before diag.):
       0.167  0.000  0.000
       0.000  0.167  0.000
       0.000  0.000  0.167
     ------------------------ ATOM   21 ------------------------
     Tr[ns( 21)] =   3.00000
     eigenvalues:
       0.500  0.500  0.500
     eigenvectors (columns):
       1.000  0.000  0.000
       0.000  1.000  0.000
       0.000  0.000  1.000
     occupation matrix ns (before diag.):
       0.500  0.000  0.000
       0.000  0.500  0.000
       0.000  0.000  0.500
     ------------------------ ATOM   22 ------------------------
     Tr[ns( 22)] =   3.00000
     eigenvalues:
       0.500  0.500  0.500
     eigenvectors (columns):
       1.000  0.000  0.000
       0.000  1.000  0.000
       0.000  0.000  1.000
     occupation matrix ns (before diag.):
       0.500  0.000  0.000
       0.000  0.500  0.000
       0.000  0.000  0.500
     ------------------------ ATOM   23 ------------------------
     Tr[ns( 23)] =   3.00000
     eigenvalues:
       0.500  0.500  0.500
     eigenvectors (columns):
       1.000  0.000  0.000
       0.000  1.000  0.000
       0.000  0.000  1.000
     occupation matrix ns (before diag.):
       0.500  0.000  0.000
       0.000  0.500  0.000
       0.000  0.000  0.500
     ------------------------ ATOM   24 ------------------------
     Tr[ns( 24)] =   3.00000
     eigenvalues:
       0.500  0.500  0.500
     eigenvectors (columns):
       1.000  0.000  0.000
       0.000  1.000  0.000
       0.000  0.000  1.000
     occupation matrix ns (before diag.):
       0.500  0.000  0.000
       0.000  0.500  0.000
       0.000  0.000  0.500
     ------------------------ ATOM   25 ------------------------
     Tr[ns( 25)] =   1.00000
     eigenvalues:
       0.167  0.167  0.167
     eigenvectors (columns):
       1.000  0.000  0.000
       0.000  1.000  0.000
       0.000  0.000  1.000
     occupation matrix ns (before diag.):
       0.167  0.000  0.000
       0.000  0.167  0.000
       0.000  0.000  0.167
     ------------------------ ATOM   26 ------------------------
     Tr[ns( 26)] =   1.00000
     eigenvalues:
       0.167  0.167  0.167
     eigenvectors (columns):
       1.000  0.000  0.000
       0.000  1.000  0.000
       0.000  0.000  1.000
     occupation matrix ns (before diag.):
       0.167  0.000  0.000
       0.000  0.167  0.000
       0.000  0.000  0.167
     ------------------------ ATOM   27 ------------------------
     Tr[ns( 27)] =   1.00000
     eigenvalues:
       0.167  0.167  0.167
     eigenvectors (columns):
       1.000  0.000  0.000
       0.000  1.000  0.000
       0.000  0.000  1.000
     occupation matrix ns (before diag.):
       0.167  0.000  0.000
       0.000  0.167  0.000
       0.000  0.000  0.167
     ------------------------ ATOM   28 ------------------------
     Tr[ns( 28)] =   1.00000
     eigenvalues:
       0.167  0.167  0.167
     eigenvectors (columns):
       1.000  0.000  0.000
       0.000  1.000  0.000
       0.000  0.000  1.000
     occupation matrix ns (before diag.):
       0.167  0.000  0.000
       0.000  0.167  0.000
       0.000  0.000  0.167
     ------------------------ ATOM   29 ------------------------
     Tr[ns( 29)] =   3.00000
     eigenvalues:
       0.500  0.500  0.500
     eigenvectors (columns):
       1.000  0.000  0.000
       0.000  1.000  0.000
       0.000  0.000  1.000
     occupation matrix ns (before diag.):
       0.500  0.000  0.000
       0.000  0.500  0.000
       0.000  0.000  0.500
     ------------------------ ATOM   30 ------------------------
     Tr[ns( 30)] =   3.00000
     eigenvalues:
       0.500  0.500  0.500
     eigenvectors (columns):
       1.000  0.000  0.000
       0.000  1.000  0.000
       0.000  0.000  1.000
     occupation matrix ns (before diag.):
       0.500  0.000  0.000
       0.000  0.500  0.000
       0.000  0.000  0.500
     ------------------------ ATOM   31 ------------------------
     Tr[ns( 31)] =   3.00000
     eigenvalues:
       0.500  0.500  0.500
     eigenvectors (columns):
       1.000  0.000  0.000
       0.000  1.000  0.000
       0.000  0.000  1.000
     occupation matrix ns (before diag.):
       0.500  0.000  0.000
       0.000  0.500  0.000
       0.000  0.000  0.500
     ------------------------ ATOM   32 ------------------------
     Tr[ns( 32)] =   3.00000
     eigenvalues:
       0.500  0.500  0.500
     eigenvectors (columns):
       1.000  0.000  0.000
       0.000  1.000  0.000
       0.000  0.000  1.000
     occupation matrix ns (before diag.):
       0.500  0.000  0.000
       0.000  0.500  0.000
       0.000  0.000  0.500
     ------------------------ ATOM   33 ------------------------
     Tr[ns( 33)] =   1.00000
     eigenvalues:
       0.167  0.167  0.167
     eigenvectors (columns):
       1.000  0.000  0.000
       0.000  1.000  0.000
       0.000  0.000  1.000
     occupation matrix ns (before diag.):
       0.167  0.000  0.000
       0.000  0.167  0.000
       0.000  0.000  0.167
     ------------------------ ATOM   34 ------------------------
     Tr[ns( 34)] =   1.00000
     eigenvalues:
       0.167  0.167  0.167
     eigenvectors (columns):
       1.000  0.000  0.000
       0.000  1.000  0.000
       0.000  0.000  1.000
     occupation matrix ns (before diag.):
       0.167  0.000  0.000
       0.000  0.167  0.000
       0.000  0.000  0.167
     ------------------------ ATOM   35 ------------------------
     Tr[ns( 35)] =   1.00000
     eigenvalues:
       0.167  0.167  0.167
     eigenvectors (columns):
       1.000  0.000  0.000
       0.000  1.000  0.000
       0.000  0.000  1.000
     occupation matrix ns (before diag.):
       0.167  0.000  0.000
       0.000  0.167  0.000
       0.000  0.000  0.167
     ------------------------ ATOM   36 ------------------------
     Tr[ns( 36)] =   1.00000
     eigenvalues:
       0.167  0.167  0.167
     eigenvectors (columns):
       1.000  0.000  0.000
       0.000  1.000  0.000
       0.000  0.000  1.000
     occupation matrix ns (before diag.):
       0.167  0.000  0.000
       0.000  0.167  0.000
       0.000  0.000  0.167
     ------------------------ ATOM   37 ------------------------
     Tr[ns( 37)] =   3.00000
     eigenvalues:
       0.500  0.500  0.500
     eigenvectors (columns):
       1.000  0.000  0.000
       0.000  1.000  0.000
       0.000  0.000  1.000
     occupation matrix ns (before diag.):
       0.500  0.000  0.000
       0.000  0.500  0.000
       0.000  0.000  0.500
     ------------------------ ATOM   38 ------------------------
     Tr[ns( 38)] =   3.00000
     eigenvalues:
       0.500  0.500  0.500
     eigenvectors (columns):
       1.000  0.000  0.000
       0.000  1.000  0.000
       0.000  0.000  1.000
     occupation matrix ns (before diag.):
       0.500  0.000  0.000
       0.000  0.500  0.000
       0.000  0.000  0.500
     ------------------------ ATOM   39 ------------------------
     Tr[ns( 39)] =   3.00000
     eigenvalues:
       0.500  0.500  0.500
     eigenvectors (columns):
       1.000  0.000  0.000
       0.000  1.000  0.000
       0.000  0.000  1.000
     occupation matrix ns (before diag.):
       0.500  0.000  0.000
       0.000  0.500  0.000
       0.000  0.000  0.500
     ------------------------ ATOM   40 ------------------------
     Tr[ns( 40)] =   3.00000
     eigenvalues:
       0.500  0.500  0.500
     eigenvectors (columns):
       1.000  0.000  0.000
       0.000  1.000  0.000
       0.000  0.000  1.000
     occupation matrix ns (before diag.):
       0.500  0.000  0.000
       0.000  0.500  0.000
       0.000  0.000  0.500
     ------------------------ ATOM   41 ------------------------
     Tr[ns( 41)] =   1.00000
     eigenvalues:
       0.167  0.167  0.167
     eigenvectors (columns):
       1.000  0.000  0.000
       0.000  1.000  0.000
       0.000  0.000  1.000
     occupation matrix ns (before diag.):
       0.167  0.000  0.000
       0.000  0.167  0.000
       0.000  0.000  0.167
     ------------------------ ATOM   42 ------------------------
     Tr[ns( 42)] =   1.00000
     eigenvalues:
       0.167  0.167  0.167
     eigenvectors (columns):
       1.000  0.000  0.000
       0.000  1.000  0.000
       0.000  0.000  1.000
     occupation matrix ns (before diag.):
       0.167  0.000  0.000
       0.000  0.167  0.000
       0.000  0.000  0.167
     ------------------------ ATOM   43 ------------------------
     Tr[ns( 43)] =   1.00000
     eigenvalues:
       0.167  0.167  0.167
     eigenvectors (columns):
       1.000  0.000  0.000
       0.000  1.000  0.000
       0.000  0.000  1.000
     occupation matrix ns (before diag.):
       0.167  0.000  0.000
       0.000  0.167  0.000
       0.000  0.000  0.167
     ------------------------ ATOM   44 ------------------------
     Tr[ns( 44)] =   1.00000
     eigenvalues:
       0.167  0.167  0.167
     eigenvectors (columns):
       1.000  0.000  0.000
       0.000  1.000  0.000
       0.000  0.000  1.000
     occupation matrix ns (before diag.):
       0.167  0.000  0.000
       0.000  0.167  0.000
       0.000  0.000  0.167
     ------------------------ ATOM   45 ------------------------
     Tr[ns( 45)] =   3.00000
     eigenvalues:
       0.500  0.500  0.500
     eigenvectors (columns):
       1.000  0.000  0.000
       0.000  1.000  0.000
       0.000  0.000  1.000
     occupation matrix ns (before diag.):
       0.500  0.000  0.000
       0.000  0.500  0.000
       0.000  0.000  0.500
     ------------------------ ATOM   46 ------------------------
     Tr[ns( 46)] =   3.00000
     eigenvalues:
       0.500  0.500  0.500
     eigenvectors (columns):
       1.000  0.000  0.000
       0.000  1.000  0.000
       0.000  0.000  1.000
     occupation matrix ns (before diag.):
       0.500  0.000  0.000
       0.000  0.500  0.000
       0.000  0.000  0.500
     ------------------------ ATOM   47 ------------------------
     Tr[ns( 47)] =   3.00000
     eigenvalues:
       0.500  0.500  0.500
     eigenvectors (columns):
       1.000  0.000  0.000
       0.000  1.000  0.000
       0.000  0.000  1.000
     occupation matrix ns (before diag.):
       0.500  0.000  0.000
       0.000  0.500  0.000
       0.000  0.000  0.500
     ------------------------ ATOM   48 ------------------------
     Tr[ns( 48)] =   3.00000
     eigenvalues:
       0.500  0.500  0.500
     eigenvectors (columns):
       1.000  0.000  0.000
       0.000  1.000  0.000
       0.000  0.000  1.000
     occupation matrix ns (before diag.):
       0.500  0.000  0.000
       0.000  0.500  0.000
       0.000  0.000  0.500
     ------------------------ ATOM   49 ------------------------
     Tr[ns( 49)] =   1.00000
     eigenvalues:
       0.167  0.167  0.167
     eigenvectors (columns):
       1.000  0.000  0.000
       0.000  1.000  0.000
       0.000  0.000  1.000
     occupation matrix ns (before diag.):
       0.167  0.000  0.000
       0.000  0.167  0.000
       0.000  0.000  0.167
     ------------------------ ATOM   50 ------------------------
     Tr[ns( 50)] =   1.00000
     eigenvalues:
       0.167  0.167  0.167
     eigenvectors (columns):
       1.000  0.000  0.000
       0.000  1.000  0.000
       0.000  0.000  1.000
     occupation matrix ns (before diag.):
       0.167  0.000  0.000
       0.000  0.167  0.000
       0.000  0.000  0.167
     ------------------------ ATOM   51 ------------------------
     Tr[ns( 51)] =   1.00000
     eigenvalues:
       0.167  0.167  0.167
     eigenvectors (columns):
       1.000  0.000  0.000
       0.000  1.000  0.000
       0.000  0.000  1.000
     occupation matrix ns (before diag.):
       0.167  0.000  0.000
       0.000  0.167  0.000
       0.000  0.000  0.167
     ------------------------ ATOM   52 ------------------------
     Tr[ns( 52)] =   1.00000
     eigenvalues:
       0.167  0.167  0.167
     eigenvectors (columns):
       1.000  0.000  0.000
       0.000  1.000  0.000
       0.000  0.000  1.000
     occupation matrix ns (before diag.):
       0.167  0.000  0.000
       0.000  0.167  0.000
       0.000  0.000  0.167
     ------------------------ ATOM   53 ------------------------
     Tr[ns( 53)] =   3.00000
     eigenvalues:
       0.500  0.500  0.500
     eigenvectors (columns):
       1.000  0.000  0.000
       0.000  1.000  0.000
       0.000  0.000  1.000
     occupation matrix ns (before diag.):
       0.500  0.000  0.000
       0.000  0.500  0.000
       0.000  0.000  0.500
     ------------------------ ATOM   54 ------------------------
     Tr[ns( 54)] =   3.00000
     eigenvalues:
       0.500  0.500  0.500
     eigenvectors (columns):
       1.000  0.000  0.000
       0.000  1.000  0.000
       0.000  0.000  1.000
     occupation matrix ns (before diag.):
       0.500  0.000  0.000
       0.000  0.500  0.000
       0.000  0.000  0.500
     ------------------------ ATOM   55 ------------------------
     Tr[ns( 55)] =   3.00000
     eigenvalues:
       0.500  0.500  0.500
     eigenvectors (columns):
       1.000  0.000  0.000
       0.000  1.000  0.000
       0.000  0.000  1.000
     occupation matrix ns (before diag.):
       0.500  0.000  0.000
       0.000  0.500  0.000
       0.000  0.000  0.500
     ------------------------ ATOM   56 ------------------------
     Tr[ns( 56)] =   3.00000
     eigenvalues:
       0.500  0.500  0.500
     eigenvectors (columns):
       1.000  0.000  0.000
       0.000  1.000  0.000
       0.000  0.000  1.000
     occupation matrix ns (before diag.):
       0.500  0.000  0.000
       0.000  0.500  0.000
       0.000  0.000  0.500
     ------------------------ ATOM   57 ------------------------
     Tr[ns( 57)] =   1.00000
     eigenvalues:
       0.167  0.167  0.167
     eigenvectors (columns):
       1.000  0.000  0.000
       0.000  1.000  0.000
       0.000  0.000  1.000
     occupation matrix ns (before diag.):
       0.167  0.000  0.000
       0.000  0.167  0.000
       0.000  0.000  0.167
     ------------------------ ATOM   58 ------------------------
     Tr[ns( 58)] =   1.00000
     eigenvalues:
       0.167  0.167  0.167
     eigenvectors (columns):
       1.000  0.000  0.000
       0.000  1.000  0.000
       0.000  0.000  1.000
     occupation matrix ns (before diag.):
       0.167  0.000  0.000
       0.000  0.167  0.000
       0.000  0.000  0.167
     ------------------------ ATOM   59 ------------------------
     Tr[ns( 59)] =   1.00000
     eigenvalues:
       0.167  0.167  0.167
     eigenvectors (columns):
       1.000  0.000  0.000
       0.000  1.000  0.000
       0.000  0.000  1.000
     occupation matrix ns (before diag.):
       0.167  0.000  0.000
       0.000  0.167  0.000
       0.000  0.000  0.167
     ------------------------ ATOM   60 ------------------------
     Tr[ns( 60)] =   1.00000
     eigenvalues:
       0.167  0.167  0.167
     eigenvectors (columns):
       1.000  0.000  0.000
       0.000  1.000  0.000
       0.000  0.000  1.000
     occupation matrix ns (before diag.):
       0.167  0.000  0.000
       0.000  0.167  0.000
       0.000  0.000  0.167
     ------------------------ ATOM   61 ------------------------
     Tr[ns( 61)] =   3.00000
     eigenvalues:
       0.500  0.500  0.500
     eigenvectors (columns):
       1.000  0.000  0.000
       0.000  1.000  0.000
       0.000  0.000  1.000
     occupation matrix ns (before diag.):
       0.500  0.000  0.000
       0.000  0.500  0.000
       0.000  0.000  0.500
     ------------------------ ATOM   62 ------------------------
     Tr[ns( 62)] =   3.00000
     eigenvalues:
       0.500  0.500  0.500
     eigenvectors (columns):
       1.000  0.000  0.000
       0.000  1.000  0.000
       0.000  0.000  1.000
     occupation matrix ns (before diag.):
       0.500  0.000  0.000
       0.000  0.500  0.000
       0.000  0.000  0.500
     ------------------------ ATOM   63 ------------------------
     Tr[ns( 63)] =   3.00000
     eigenvalues:
       0.500  0.500  0.500
     eigenvectors (columns):
       1.000  0.000  0.000
       0.000  1.000  0.000
       0.000  0.000  1.000
     occupation matrix ns (before diag.):
       0.500  0.000  0.000
       0.000  0.500  0.000
       0.000  0.000  0.500
     ------------------------ ATOM   64 ------------------------
     Tr[ns( 64)] =   3.00000
     eigenvalues:
       0.500  0.500  0.500
     eigenvectors (columns):
       1.000  0.000  0.000
       0.000  1.000  0.000
       0.000  0.000  1.000
     occupation matrix ns (before diag.):
       0.500  0.000  0.000
       0.000  0.500  0.000
       0.000  0.000  0.500
     ------------------------ ATOM   65 ------------------------
     Tr[ns( 65)] =   1.00000
     eigenvalues:
       0.167  0.167  0.167
     eigenvectors (columns):
       1.000  0.000  0.000
       0.000  1.000  0.000
       0.000  0.000  1.000
     occupation matrix ns (before diag.):
       0.167  0.000  0.000
       0.000  0.167  0.000
       0.000  0.000  0.167
     ------------------------ ATOM   66 ------------------------
     Tr[ns( 66)] =   1.00000
     eigenvalues:
       0.167  0.167  0.167
     eigenvectors (columns):
       1.000  0.000  0.000
       0.000  1.000  0.000
       0.000  0.000  1.000
     occupation matrix ns (before diag.):
       0.167  0.000  0.000
       0.000  0.167  0.000
       0.000  0.000  0.167
     ------------------------ ATOM   67 ------------------------
     Tr[ns( 67)] =   1.00000
     eigenvalues:
       0.167  0.167  0.167
     eigenvectors (columns):
       1.000  0.000  0.000
       0.000  1.000  0.000
       0.000  0.000  1.000
     occupation matrix ns (before diag.):
       0.167  0.000  0.000
       0.000  0.167  0.000
       0.000  0.000  0.167
     ------------------------ ATOM   68 ------------------------
     Tr[ns( 68)] =   1.00000
     eigenvalues:
       0.167  0.167  0.167
     eigenvectors (columns):
       1.000  0.000  0.000
       0.000  1.000  0.000
       0.000  0.000  1.000
     occupation matrix ns (before diag.):
       0.167  0.000  0.000
       0.000  0.167  0.000
       0.000  0.000  0.167
     ------------------------ ATOM   69 ------------------------
     Tr[ns( 69)] =   3.00000
     eigenvalues:
       0.500  0.500  0.500
     eigenvectors (columns):
       1.000  0.000  0.000
       0.000  1.000  0.000
       0.000  0.000  1.000
     occupation matrix ns (before diag.):
       0.500  0.000  0.000
       0.000  0.500  0.000
       0.000  0.000  0.500
     ------------------------ ATOM   70 ------------------------
     Tr[ns( 70)] =   3.00000
     eigenvalues:
       0.500  0.500  0.500
     eigenvectors (columns):
       1.000  0.000  0.000
       0.000  1.000  0.000
       0.000  0.000  1.000
     occupation matrix ns (before diag.):
       0.500  0.000  0.000
       0.000  0.500  0.000
       0.000  0.000  0.500
     ------------------------ ATOM   71 ------------------------
     Tr[ns( 71)] =   3.00000
     eigenvalues:
       0.500  0.500  0.500
     eigenvectors (columns):
       1.000  0.000  0.000
       0.000  1.000  0.000
       0.000  0.000  1.000
     occupation matrix ns (before diag.):
       0.500  0.000  0.000
       0.000  0.500  0.000
       0.000  0.000  0.500
     ------------------------ ATOM   72 ------------------------
     Tr[ns( 72)] =   3.00000
     eigenvalues:
       0.500  0.500  0.500
     eigenvectors (columns):
       1.000  0.000  0.000
       0.000  1.000  0.000
       0.000  0.000  1.000
     occupation matrix ns (before diag.):
       0.500  0.000  0.000
       0.000  0.500  0.000
       0.000  0.000  0.500
     ------------------------ ATOM   73 ------------------------
     Tr[ns( 73)] =   1.00000
     eigenvalues:
       0.167  0.167  0.167
     eigenvectors (columns):
       1.000  0.000  0.000
       0.000  1.000  0.000
       0.000  0.000  1.000
     occupation matrix ns (before diag.):
       0.167  0.000  0.000
       0.000  0.167  0.000
       0.000  0.000  0.167
     ------------------------ ATOM   74 ------------------------
     Tr[ns( 74)] =   1.00000
     eigenvalues:
       0.167  0.167  0.167
     eigenvectors (columns):
       1.000  0.000  0.000
       0.000  1.000  0.000
       0.000  0.000  1.000
     occupation matrix ns (before diag.):
       0.167  0.000  0.000
       0.000  0.167  0.000
       0.000  0.000  0.167
     ------------------------ ATOM   75 ------------------------
     Tr[ns( 75)] =   1.00000
     eigenvalues:
       0.167  0.167  0.167
     eigenvectors (columns):
       1.000  0.000  0.000
       0.000  1.000  0.000
       0.000  0.000  1.000
     occupation matrix ns (before diag.):
       0.167  0.000  0.000
       0.000  0.167  0.000
       0.000  0.000  0.167
     ------------------------ ATOM   76 ------------------------
     Tr[ns( 76)] =   1.00000
     eigenvalues:
       0.167  0.167  0.167
     eigenvectors (columns):
       1.000  0.000  0.000
       0.000  1.000  0.000
       0.000  0.000  1.000
     occupation matrix ns (before diag.):
       0.167  0.000  0.000
       0.000  0.167  0.000
       0.000  0.000  0.167
     ------------------------ ATOM   77 ------------------------
     Tr[ns( 77)] =   3.00000
     eigenvalues:
       0.500  0.500  0.500
     eigenvectors (columns):
       1.000  0.000  0.000
       0.000  1.000  0.000
       0.000  0.000  1.000
     occupation matrix ns (before diag.):
       0.500  0.000  0.000
       0.000  0.500  0.000
       0.000  0.000  0.500
     ------------------------ ATOM   78 ------------------------
     Tr[ns( 78)] =   3.00000
     eigenvalues:
       0.500  0.500  0.500
     eigenvectors (columns):
       1.000  0.000  0.000
       0.000  1.000  0.000
       0.000  0.000  1.000
     occupation matrix ns (before diag.):
       0.500  0.000  0.000
       0.000  0.500  0.000
       0.000  0.000  0.500
     ------------------------ ATOM   79 ------------------------
     Tr[ns( 79)] =   3.00000
     eigenvalues:
       0.500  0.500  0.500
     eigenvectors (columns):
       1.000  0.000  0.000
       0.000  1.000  0.000
       0.000  0.000  1.000
     occupation matrix ns (before diag.):
       0.500  0.000  0.000
       0.000  0.500  0.000
       0.000  0.000  0.500
     ------------------------ ATOM   80 ------------------------
     Tr[ns( 80)] =   3.00000
     eigenvalues:
       0.500  0.500  0.500
     eigenvectors (columns):
       1.000  0.000  0.000
       0.000  1.000  0.000
       0.000  0.000  1.000
     occupation matrix ns (before diag.):
       0.500  0.000  0.000
       0.000  0.500  0.000
       0.000  0.000  0.500
     ------------------------ ATOM   81 ------------------------
     Tr[ns( 81)] =   1.00000
     eigenvalues:
       0.167  0.167  0.167
     eigenvectors (columns):
       1.000  0.000  0.000
       0.000  1.000  0.000
       0.000  0.000  1.000
     occupation matrix ns (before diag.):
       0.167  0.000  0.000
       0.000  0.167  0.000
       0.000  0.000  0.167
     ------------------------ ATOM   82 ------------------------
     Tr[ns( 82)] =   1.00000
     eigenvalues:
       0.167  0.167  0.167
     eigenvectors (columns):
       1.000  0.000  0.000
       0.000  1.000  0.000
       0.000  0.000  1.000
     occupation matrix ns (before diag.):
       0.167  0.000  0.000
       0.000  0.167  0.000
       0.000  0.000  0.167
     ------------------------ ATOM   83 ------------------------
     Tr[ns( 83)] =   1.00000
     eigenvalues:
       0.167  0.167  0.167
     eigenvectors (columns):
       1.000  0.000  0.000
       0.000  1.000  0.000
       0.000  0.000  1.000
     occupation matrix ns (before diag.):
       0.167  0.000  0.000
       0.000  0.167  0.000
       0.000  0.000  0.167
     ------------------------ ATOM   84 ------------------------
     Tr[ns( 84)] =   1.00000
     eigenvalues:
       0.167  0.167  0.167
     eigenvectors (columns):
       1.000  0.000  0.000
       0.000  1.000  0.000
       0.000  0.000  1.000
     occupation matrix ns (before diag.):
       0.167  0.000  0.000
       0.000  0.167  0.000
       0.000  0.000  0.167
     ------------------------ ATOM   85 ------------------------
     Tr[ns( 85)] =   3.00000
     eigenvalues:
       0.500  0.500  0.500
     eigenvectors (columns):
       1.000  0.000  0.000
       0.000  1.000  0.000
       0.000  0.000  1.000
     occupation matrix ns (before diag.):
       0.500  0.000  0.000
       0.000  0.500  0.000
       0.000  0.000  0.500
     ------------------------ ATOM   86 ------------------------
     Tr[ns( 86)] =   3.00000
     eigenvalues:
       0.500  0.500  0.500
     eigenvectors (columns):
       1.000  0.000  0.000
       0.000  1.000  0.000
       0.000  0.000  1.000
     occupation matrix ns (before diag.):
       0.500  0.000  0.000
       0.000  0.500  0.000
       0.000  0.000  0.500
     ------------------------ ATOM   87 ------------------------
     Tr[ns( 87)] =   3.00000
     eigenvalues:
       0.500  0.500  0.500
     eigenvectors (columns):
       1.000  0.000  0.000
       0.000  1.000  0.000
       0.000  0.000  1.000
     occupation matrix ns (before diag.):
       0.500  0.000  0.000
       0.000  0.500  0.000
       0.000  0.000  0.500
     ------------------------ ATOM   88 ------------------------
     Tr[ns( 88)] =   3.00000
     eigenvalues:
       0.500  0.500  0.500
     eigenvectors (columns):
       1.000  0.000  0.000
       0.000  1.000  0.000
       0.000  0.000  1.000
     occupation matrix ns (before diag.):
       0.500  0.000  0.000
       0.000  0.500  0.000
       0.000  0.000  0.500
     ------------------------ ATOM   89 ------------------------
     Tr[ns( 89)] =   1.00000
     eigenvalues:
       0.167  0.167  0.167
     eigenvectors (columns):
       1.000  0.000  0.000
       0.000  1.000  0.000
       0.000  0.000  1.000
     occupation matrix ns (before diag.):
       0.167  0.000  0.000
       0.000  0.167  0.000
       0.000  0.000  0.167
     ------------------------ ATOM   90 ------------------------
     Tr[ns( 90)] =   1.00000
     eigenvalues:
       0.167  0.167  0.167
     eigenvectors (columns):
       1.000  0.000  0.000
       0.000  1.000  0.000
       0.000  0.000  1.000
     occupation matrix ns (before diag.):
       0.167  0.000  0.000
       0.000  0.167  0.000
       0.000  0.000  0.167
     ------------------------ ATOM   91 ------------------------
     Tr[ns( 91)] =   1.00000
     eigenvalues:
       0.167  0.167  0.167
     eigenvectors (columns):
       1.000  0.000  0.000
       0.000  1.000  0.000
       0.000  0.000  1.000
     occupation matrix ns (before diag.):
       0.167  0.000  0.000
       0.000  0.167  0.000
       0.000  0.000  0.167
     ------------------------ ATOM   92 ------------------------
     Tr[ns( 92)] =   1.00000
     eigenvalues:
       0.167  0.167  0.167
     eigenvectors (columns):
       1.000  0.000  0.000
       0.000  1.000  0.000
       0.000  0.000  1.000
     occupation matrix ns (before diag.):
       0.167  0.000  0.000
       0.000  0.167  0.000
       0.000  0.000  0.167
     ------------------------ ATOM   93 ------------------------
     Tr[ns( 93)] =   3.00000
     eigenvalues:
       0.500  0.500  0.500
     eigenvectors (columns):
       1.000  0.000  0.000
       0.000  1.000  0.000
       0.000  0.000  1.000
     occupation matrix ns (before diag.):
       0.500  0.000  0.000
       0.000  0.500  0.000
       0.000  0.000  0.500
     ------------------------ ATOM   94 ------------------------
     Tr[ns( 94)] =   3.00000
     eigenvalues:
       0.500  0.500  0.500
     eigenvectors (columns):
       1.000  0.000  0.000
       0.000  1.000  0.000
       0.000  0.000  1.000
     occupation matrix ns (before diag.):
       0.500  0.000  0.000
       0.000  0.500  0.000
       0.000  0.000  0.500
     ------------------------ ATOM   95 ------------------------
     Tr[ns( 95)] =   3.00000
     eigenvalues:
       0.500  0.500  0.500
     eigenvectors (columns):
       1.000  0.000  0.000
       0.000  1.000  0.000
       0.000  0.000  1.000
     occupation matrix ns (before diag.):
       0.500  0.000  0.000
       0.000  0.500  0.000
       0.000  0.000  0.500
     ------------------------ ATOM   96 ------------------------
     Tr[ns( 96)] =   3.00000
     eigenvalues:
       0.500  0.500  0.500
     eigenvectors (columns):
       1.000  0.000  0.000
       0.000  1.000  0.000
       0.000  0.000  1.000
     occupation matrix ns (before diag.):
       0.500  0.000  0.000
       0.000  0.500  0.000
       0.000  0.000  0.500
     ------------------------ ATOM   97 ------------------------
     Tr[ns( 97)] =   1.00000
     eigenvalues:
       0.167  0.167  0.167
     eigenvectors (columns):
       1.000  0.000  0.000
       0.000  1.000  0.000
       0.000  0.000  1.000
     occupation matrix ns (before diag.):
       0.167  0.000  0.000
       0.000  0.167  0.000
       0.000  0.000  0.167
     ------------------------ ATOM   98 ------------------------
     Tr[ns( 98)] =   1.00000
     eigenvalues:
       0.167  0.167  0.167
     eigenvectors (columns):
       1.000  0.000  0.000
       0.000  1.000  0.000
       0.000  0.000  1.000
     occupation matrix ns (before diag.):
       0.167  0.000  0.000
       0.000  0.167  0.000
       0.000  0.000  0.167
     ------------------------ ATOM   99 ------------------------
     Tr[ns( 99)] =   1.00000
     eigenvalues:
       0.167  0.167  0.167
     eigenvectors (columns):
       1.000  0.000  0.000
       0.000  1.000  0.000
       0.000  0.000  1.000
     occupation matrix ns (before diag.):
       0.167  0.000  0.000
       0.000  0.167  0.000
       0.000  0.000  0.167
     ------------------------ ATOM  100 ------------------------
     Tr[ns(100)] =   1.00000
     eigenvalues:
       0.167  0.167  0.167
     eigenvectors (columns):
       1.000  0.000  0.000
       0.000  1.000  0.000
       0.000  0.000  1.000
     occupation matrix ns (before diag.):
       0.167  0.000  0.000
       0.000  0.167  0.000
       0.000  0.000  0.167
     ------------------------ ATOM  101 ------------------------
     Tr[ns(101)] =   3.00000
     eigenvalues:
       0.500  0.500  0.500
     eigenvectors (columns):
       1.000  0.000  0.000
       0.000  1.000  0.000
       0.000  0.000  1.000
     occupation matrix ns (before diag.):
       0.500  0.000  0.000
       0.000  0.500  0.000
       0.000  0.000  0.500
     ------------------------ ATOM  102 ------------------------
     Tr[ns(102)] =   3.00000
     eigenvalues:
       0.500  0.500  0.500
     eigenvectors (columns):
       1.000  0.000  0.000
       0.000  1.000  0.000
       0.000  0.000  1.000
     occupation matrix ns (before diag.):
       0.500  0.000  0.000
       0.000  0.500  0.000
       0.000  0.000  0.500
     ------------------------ ATOM  103 ------------------------
     Tr[ns(103)] =   3.00000
     eigenvalues:
       0.500  0.500  0.500
     eigenvectors (columns):
       1.000  0.000  0.000
       0.000  1.000  0.000
       0.000  0.000  1.000
     occupation matrix ns (before diag.):
       0.500  0.000  0.000
       0.000  0.500  0.000
       0.000  0.000  0.500
     ------------------------ ATOM  104 ------------------------
     Tr[ns(104)] =   3.00000
     eigenvalues:
       0.500  0.500  0.500
     eigenvectors (columns):
       1.000  0.000  0.000
       0.000  1.000  0.000
       0.000  0.000  1.000
     occupation matrix ns (before diag.):
       0.500  0.000  0.000
       0.000  0.500  0.000
       0.000  0.000  0.500
     ------------------------ ATOM  105 ------------------------
     Tr[ns(105)] =   1.00000
     eigenvalues:
       0.167  0.167  0.167
     eigenvectors (columns):
       1.000  0.000  0.000
       0.000  1.000  0.000
       0.000  0.000  1.000
     occupation matrix ns (before diag.):
       0.167  0.000  0.000
       0.000  0.167  0.000
       0.000  0.000  0.167
     ------------------------ ATOM  106 ------------------------
     Tr[ns(106)] =   1.00000
     eigenvalues:
       0.167  0.167  0.167
     eigenvectors (columns):
       1.000  0.000  0.000
       0.000  1.000  0.000
       0.000  0.000  1.000
     occupation matrix ns (before diag.):
       0.167  0.000  0.000
       0.000  0.167  0.000
       0.000  0.000  0.167
     ------------------------ ATOM  107 ------------------------
     Tr[ns(107)] =   1.00000
     eigenvalues:
       0.167  0.167  0.167
     eigenvectors (columns):
       1.000  0.000  0.000
       0.000  1.000  0.000
       0.000  0.000  1.000
     occupation matrix ns (before diag.):
       0.167  0.000  0.000
       0.000  0.167  0.000
       0.000  0.000  0.167
     ------------------------ ATOM  108 ------------------------
     Tr[ns(108)] =   1.00000
     eigenvalues:
       0.167  0.167  0.167
     eigenvectors (columns):
       1.000  0.000  0.000
       0.000  1.000  0.000
       0.000  0.000  1.000
     occupation matrix ns (before diag.):
       0.167  0.000  0.000
       0.000  0.167  0.000
       0.000  0.000  0.167
     ------------------------ ATOM  109 ------------------------
     Tr[ns(109)] =   3.00000
     eigenvalues:
       0.500  0.500  0.500
     eigenvectors (columns):
       1.000  0.000  0.000
       0.000  1.000  0.000
       0.000  0.000  1.000
     occupation matrix ns (before diag.):
       0.500  0.000  0.000
       0.000  0.500  0.000
       0.000  0.000  0.500
     ------------------------ ATOM  110 ------------------------
     Tr[ns(110)] =   3.00000
     eigenvalues:
       0.500  0.500  0.500
     eigenvectors (columns):
       1.000  0.000  0.000
       0.000  1.000  0.000
       0.000  0.000  1.000
     occupation matrix ns (before diag.):
       0.500  0.000  0.000
       0.000  0.500  0.000
       0.000  0.000  0.500
     ------------------------ ATOM  111 ------------------------
     Tr[ns(111)] =   3.00000
     eigenvalues:
       0.500  0.500  0.500
     eigenvectors (columns):
       1.000  0.000  0.000
       0.000  1.000  0.000
       0.000  0.000  1.000
     occupation matrix ns (before diag.):
       0.500  0.000  0.000
       0.000  0.500  0.000
       0.000  0.000  0.500
     ------------------------ ATOM  112 ------------------------
     Tr[ns(112)] =   3.00000
     eigenvalues:
       0.500  0.500  0.500
     eigenvectors (columns):
       1.000  0.000  0.000
       0.000  1.000  0.000
       0.000  0.000  1.000
     occupation matrix ns (before diag.):
       0.500  0.000  0.000
       0.000  0.500  0.000
       0.000  0.000  0.500
     ------------------------ ATOM  113 ------------------------
     Tr[ns(113)] =   1.00000
     eigenvalues:
       0.167  0.167  0.167
     eigenvectors (columns):
       1.000  0.000  0.000
       0.000  1.000  0.000
       0.000  0.000  1.000
     occupation matrix ns (before diag.):
       0.167  0.000  0.000
       0.000  0.167  0.000
       0.000  0.000  0.167
     ------------------------ ATOM  114 ------------------------
     Tr[ns(114)] =   1.00000
     eigenvalues:
       0.167  0.167  0.167
     eigenvectors (columns):
       1.000  0.000  0.000
       0.000  1.000  0.000
       0.000  0.000  1.000
     occupation matrix ns (before diag.):
       0.167  0.000  0.000
       0.000  0.167  0.000
       0.000  0.000  0.167
     ------------------------ ATOM  115 ------------------------
     Tr[ns(115)] =   1.00000
     eigenvalues:
       0.167  0.167  0.167
     eigenvectors (columns):
       1.000  0.000  0.000
       0.000  1.000  0.000
       0.000  0.000  1.000
     occupation matrix ns (before diag.):
       0.167  0.000  0.000
       0.000  0.167  0.000
       0.000  0.000  0.167
     ------------------------ ATOM  116 ------------------------
     Tr[ns(116)] =   1.00000
     eigenvalues:
       0.167  0.167  0.167
     eigenvectors (columns):
       1.000  0.000  0.000
       0.000  1.000  0.000
       0.000  0.000  1.000
     occupation matrix ns (before diag.):
       0.167  0.000  0.000
       0.000  0.167  0.000
       0.000  0.000  0.167
     ------------------------ ATOM  117 ------------------------
     Tr[ns(117)] =   3.00000
     eigenvalues:
       0.500  0.500  0.500
     eigenvectors (columns):
       1.000  0.000  0.000
       0.000  1.000  0.000
       0.000  0.000  1.000
     occupation matrix ns (before diag.):
       0.500  0.000  0.000
       0.000  0.500  0.000
       0.000  0.000  0.500
     ------------------------ ATOM  118 ------------------------
     Tr[ns(118)] =   3.00000
     eigenvalues:
       0.500  0.500  0.500
     eigenvectors (columns):
       1.000  0.000  0.000
       0.000  1.000  0.000
       0.000  0.000  1.000
     occupation matrix ns (before diag.):
       0.500  0.000  0.000
       0.000  0.500  0.000
       0.000  0.000  0.500
     ------------------------ ATOM  119 ------------------------
     Tr[ns(119)] =   3.00000
     eigenvalues:
       0.500  0.500  0.500
     eigenvectors (columns):
       1.000  0.000  0.000
       0.000  1.000  0.000
       0.000  0.000  1.000
     occupation matrix ns (before diag.):
       0.500  0.000  0.000
       0.000  0.500  0.000
       0.000  0.000  0.500
     ------------------------ ATOM  120 ------------------------
     Tr[ns(120)] =   3.00000
     eigenvalues:
       0.500  0.500  0.500
     eigenvectors (columns):
       1.000  0.000  0.000
       0.000  1.000  0.000
       0.000  0.000  1.000
     occupation matrix ns (before diag.):
       0.500  0.000  0.000
       0.000  0.500  0.000
       0.000  0.000  0.500
     ------------------------ ATOM  121 ------------------------
     Tr[ns(121)] =   1.00000
     eigenvalues:
       0.167  0.167  0.167
     eigenvectors (columns):
       1.000  0.000  0.000
       0.000  1.000  0.000
       0.000  0.000  1.000
     occupation matrix ns (before diag.):
       0.167  0.000  0.000
       0.000  0.167  0.000
       0.000  0.000  0.167
     ------------------------ ATOM  122 ------------------------
     Tr[ns(122)] =   1.00000
     eigenvalues:
       0.167  0.167  0.167
     eigenvectors (columns):
       1.000  0.000  0.000
       0.000  1.000  0.000
       0.000  0.000  1.000
     occupation matrix ns (before diag.):
       0.167  0.000  0.000
       0.000  0.167  0.000
       0.000  0.000  0.167
     ------------------------ ATOM  123 ------------------------
     Tr[ns(123)] =   1.00000
     eigenvalues:
       0.167  0.167  0.167
     eigenvectors (columns):
       1.000  0.000  0.000
       0.000  1.000  0.000
       0.000  0.000  1.000
     occupation matrix ns (before diag.):
       0.167  0.000  0.000
       0.000  0.167  0.000
       0.000  0.000  0.167
     ------------------------ ATOM  124 ------------------------
     Tr[ns(124)] =   1.00000
     eigenvalues:
       0.167  0.167  0.167
     eigenvectors (columns):
       1.000  0.000  0.000
       0.000  1.000  0.000
       0.000  0.000  1.000
     occupation matrix ns (before diag.):
       0.167  0.000  0.000
       0.000  0.167  0.000
       0.000  0.000  0.167
     ------------------------ ATOM  125 ------------------------
     Tr[ns(125)] =   3.00000
     eigenvalues:
       0.500  0.500  0.500
     eigenvectors (columns):
       1.000  0.000  0.000
       0.000  1.000  0.000
       0.000  0.000  1.000
     occupation matrix ns (before diag.):
       0.500  0.000  0.000
       0.000  0.500  0.000
       0.000  0.000  0.500
     ------------------------ ATOM  126 ------------------------
     Tr[ns(126)] =   3.00000
     eigenvalues:
       0.500  0.500  0.500
     eigenvectors (columns):
       1.000  0.000  0.000
       0.000  1.000  0.000
       0.000  0.000  1.000
     occupation matrix ns (before diag.):
       0.500  0.000  0.000
       0.000  0.500  0.000
       0.000  0.000  0.500
     ------------------------ ATOM  127 ------------------------
     Tr[ns(127)] =   3.00000
     eigenvalues:
       0.500  0.500  0.500
     eigenvectors (columns):
       1.000  0.000  0.000
       0.000  1.000  0.000
       0.000  0.000  1.000
     occupation matrix ns (before diag.):
       0.500  0.000  0.000
       0.000  0.500  0.000
       0.000  0.000  0.500
     ------------------------ ATOM  128 ------------------------
     Tr[ns(128)] =   3.00000
     eigenvalues:
       0.500  0.500  0.500
     eigenvectors (columns):
       1.000  0.000  0.000
       0.000  1.000  0.000
       0.000  0.000  1.000
     occupation matrix ns (before diag.):
       0.500  0.000  0.000
       0.000  0.500  0.000
       0.000  0.000  0.500
     ------------------------ ATOM  129 ------------------------
     Tr[ns(129)] =   1.00000
     eigenvalues:
       0.167  0.167  0.167
     eigenvectors (columns):
       1.000  0.000  0.000
       0.000  1.000  0.000
       0.000  0.000  1.000
     occupation matrix ns (before diag.):
       0.167  0.000  0.000
       0.000  0.167  0.000
       0.000  0.000  0.167
     ------------------------ ATOM  130 ------------------------
     Tr[ns(130)] =   1.00000
     eigenvalues:
       0.167  0.167  0.167
     eigenvectors (columns):
       1.000  0.000  0.000
       0.000  1.000  0.000
       0.000  0.000  1.000
     occupation matrix ns (before diag.):
       0.167  0.000  0.000
       0.000  0.167  0.000
       0.000  0.000  0.167
     ------------------------ ATOM  131 ------------------------
     Tr[ns(131)] =   1.00000
     eigenvalues:
       0.167  0.167  0.167
     eigenvectors (columns):
       1.000  0.000  0.000
       0.000  1.000  0.000
       0.000  0.000  1.000
     occupation matrix ns (before diag.):
       0.167  0.000  0.000
       0.000  0.167  0.000
       0.000  0.000  0.167
     ------------------------ ATOM  132 ------------------------
     Tr[ns(132)] =   1.00000
     eigenvalues:
       0.167  0.167  0.167
     eigenvectors (columns):
       1.000  0.000  0.000
       0.000  1.000  0.000
       0.000  0.000  1.000
     occupation matrix ns (before diag.):
       0.167  0.000  0.000
       0.000  0.167  0.000
       0.000  0.000  0.167
     ------------------------ ATOM  133 ------------------------
     Tr[ns(133)] =   3.00000
     eigenvalues:
       0.500  0.500  0.500
     eigenvectors (columns):
       1.000  0.000  0.000
       0.000  1.000  0.000
       0.000  0.000  1.000
     occupation matrix ns (before diag.):
       0.500  0.000  0.000
       0.000  0.500  0.000
       0.000  0.000  0.500
     ------------------------ ATOM  134 ------------------------
     Tr[ns(134)] =   3.00000
     eigenvalues:
       0.500  0.500  0.500
     eigenvectors (columns):
       1.000  0.000  0.000
       0.000  1.000  0.000
       0.000  0.000  1.000
     occupation matrix ns (before diag.):
       0.500  0.000  0.000
       0.000  0.500  0.000
       0.000  0.000  0.500
     ------------------------ ATOM  135 ------------------------
     Tr[ns(135)] =   3.00000
     eigenvalues:
       0.500  0.500  0.500
     eigenvectors (columns):
       1.000  0.000  0.000
       0.000  1.000  0.000
       0.000  0.000  1.000
     occupation matrix ns (before diag.):
       0.500  0.000  0.000
       0.000  0.500  0.000
       0.000  0.000  0.500
     ------------------------ ATOM  136 ------------------------
     Tr[ns(136)] =   3.00000
     eigenvalues:
       0.500  0.500  0.500
     eigenvectors (columns):
       1.000  0.000  0.000
       0.000  1.000  0.000
       0.000  0.000  1.000
     occupation matrix ns (before diag.):
       0.500  0.000  0.000
       0.000  0.500  0.000
       0.000  0.000  0.500
     ------------------------ ATOM  137 ------------------------
     Tr[ns(137)] =   1.00000
     eigenvalues:
       0.167  0.167  0.167
     eigenvectors (columns):
       1.000  0.000  0.000
       0.000  1.000  0.000
       0.000  0.000  1.000
     occupation matrix ns (before diag.):
       0.167  0.000  0.000
       0.000  0.167  0.000
       0.000  0.000  0.167
     ------------------------ ATOM  138 ------------------------
     Tr[ns(138)] =   1.00000
     eigenvalues:
       0.167  0.167  0.167
     eigenvectors (columns):
       1.000  0.000  0.000
       0.000  1.000  0.000
       0.000  0.000  1.000
     occupation matrix ns (before diag.):
       0.167  0.000  0.000
       0.000  0.167  0.000
       0.000  0.000  0.167
     ------------------------ ATOM  139 ------------------------
     Tr[ns(139)] =   1.00000
     eigenvalues:
       0.167  0.167  0.167
     eigenvectors (columns):
       1.000  0.000  0.000
       0.000  1.000  0.000
       0.000  0.000  1.000
     occupation matrix ns (before diag.):
       0.167  0.000  0.000
       0.000  0.167  0.000
       0.000  0.000  0.167
     ------------------------ ATOM  140 ------------------------
     Tr[ns(140)] =   1.00000
     eigenvalues:
       0.167  0.167  0.167
     eigenvectors (columns):
       1.000  0.000  0.000
       0.000  1.000  0.000
       0.000  0.000  1.000
     occupation matrix ns (before diag.):
       0.167  0.000  0.000
       0.000  0.167  0.000
       0.000  0.000  0.167
     ------------------------ ATOM  141 ------------------------
     Tr[ns(141)] =   3.00000
     eigenvalues:
       0.500  0.500  0.500
     eigenvectors (columns):
       1.000  0.000  0.000
       0.000  1.000  0.000
       0.000  0.000  1.000
     occupation matrix ns (before diag.):
       0.500  0.000  0.000
       0.000  0.500  0.000
       0.000  0.000  0.500
     ------------------------ ATOM  142 ------------------------
     Tr[ns(142)] =   3.00000
     eigenvalues:
       0.500  0.500  0.500
     eigenvectors (columns):
       1.000  0.000  0.000
       0.000  1.000  0.000
       0.000  0.000  1.000
     occupation matrix ns (before diag.):
       0.500  0.000  0.000
       0.000  0.500  0.000
       0.000  0.000  0.500
     ------------------------ ATOM  143 ------------------------
     Tr[ns(143)] =   3.00000
     eigenvalues:
       0.500  0.500  0.500
     eigenvectors (columns):
       1.000  0.000  0.000
       0.000  1.000  0.000
       0.000  0.000  1.000
     occupation matrix ns (before diag.):
       0.500  0.000  0.000
       0.000  0.500  0.000
       0.000  0.000  0.500
     ------------------------ ATOM  144 ------------------------
     Tr[ns(144)] =   3.00000
     eigenvalues:
       0.500  0.500  0.500
     eigenvectors (columns):
       1.000  0.000  0.000
       0.000  1.000  0.000
       0.000  0.000  1.000
     occupation matrix ns (before diag.):
       0.500  0.000  0.000
       0.000  0.500  0.000
       0.000  0.000  0.500
     ------------------------ ATOM  145 ------------------------
     Tr[ns(145)] =   1.00000
     eigenvalues:
       0.167  0.167  0.167
     eigenvectors (columns):
       1.000  0.000  0.000
       0.000  1.000  0.000
       0.000  0.000  1.000
     occupation matrix ns (before diag.):
       0.167  0.000  0.000
       0.000  0.167  0.000
       0.000  0.000  0.167
     ------------------------ ATOM  146 ------------------------
     Tr[ns(146)] =   1.00000
     eigenvalues:
       0.167  0.167  0.167
     eigenvectors (columns):
       1.000  0.000  0.000
       0.000  1.000  0.000
       0.000  0.000  1.000
     occupation matrix ns (before diag.):
       0.167  0.000  0.000
       0.000  0.167  0.000
       0.000  0.000  0.167
     ------------------------ ATOM  147 ------------------------
     Tr[ns(147)] =   1.00000
     eigenvalues:
       0.167  0.167  0.167
     eigenvectors (columns):
       1.000  0.000  0.000
       0.000  1.000  0.000
       0.000  0.000  1.000
     occupation matrix ns (before diag.):
       0.167  0.000  0.000
       0.000  0.167  0.000
       0.000  0.000  0.167
     ------------------------ ATOM  148 ------------------------
     Tr[ns(148)] =   1.00000
     eigenvalues:
       0.167  0.167  0.167
     eigenvectors (columns):
       1.000  0.000  0.000
       0.000  1.000  0.000
       0.000  0.000  1.000
     occupation matrix ns (before diag.):
       0.167  0.000  0.000
       0.000  0.167  0.000
       0.000  0.000  0.167
     ------------------------ ATOM  149 ------------------------
     Tr[ns(149)] =   3.00000
     eigenvalues:
       0.500  0.500  0.500
     eigenvectors (columns):
       1.000  0.000  0.000
       0.000  1.000  0.000
       0.000  0.000  1.000
     occupation matrix ns (before diag.):
       0.500  0.000  0.000
       0.000  0.500  0.000
       0.000  0.000  0.500
     ------------------------ ATOM  150 ------------------------
     Tr[ns(150)] =   3.00000
     eigenvalues:
       0.500  0.500  0.500
     eigenvectors (columns):
       1.000  0.000  0.000
       0.000  1.000  0.000
       0.000  0.000  1.000
     occupation matrix ns (before diag.):
       0.500  0.000  0.000
       0.000  0.500  0.000
       0.000  0.000  0.500
     ------------------------ ATOM  151 ------------------------
     Tr[ns(151)] =   3.00000
     eigenvalues:
       0.500  0.500  0.500
     eigenvectors (columns):
       1.000  0.000  0.000
       0.000  1.000  0.000
       0.000  0.000  1.000
     occupation matrix ns (before diag.):
       0.500  0.000  0.000
       0.000  0.500  0.000
       0.000  0.000  0.500
     ------------------------ ATOM  152 ------------------------
[...]
   -25.9007 -25.9006 -25.9004 -25.9004 -25.9003 -25.9001 -25.9001 -25.8997
   -25.8995 -25.8994 -25.8991 -25.8990 -25.8988 -25.8982 -25.8982 -25.8982
   -25.8981 -25.8979 -25.8978 -25.8976 -25.8975 -25.8973 -25.8971 -25.8970
   -25.8969 -25.8959 -25.8957 -25.8955 -25.8954 -25.8952 -25.8950 -25.8948
   -25.8948 -25.8942 -25.8940 -25.8939 -25.8938 -25.8934 -25.8933 -25.8928
   -25.8922 -25.8919 -25.8911 -25.8910 -25.8909 -25.8906 -25.8903 -25.8891
   -25.8890 -25.8890 -25.8882 -25.8881 -25.8874 -25.8869 -25.8864 -25.8862
   -25.8858 -25.8847 -25.8844 -25.8841 -25.8829 -25.8820 -25.8818 -25.8816
   -25.8808 -25.8789 -25.8774 -25.8674 -25.8622 -19.3659 -19.3651 -19.3622
   -19.3620 -19.3608 -19.3606 -19.3595 -19.3586 -19.3580 -19.3567 -19.3557
   -19.3554 -19.3552 -19.3549 -19.3549 -19.3545 -19.3544 -19.3541 -19.3538
   -19.3533 -19.3531 -19.3518 -19.3508 -19.3506 -19.3485 -19.3477 -19.3468
   -19.3467 -19.3455 -19.3442 -19.3435 -19.3434 -19.3430 -19.3428 -19.3413
   -19.3404 -19.3401 -19.3393 -19.3391 -19.3379 -19.3376 -19.3374 -19.3374
   -19.3369 -19.3365 -19.3364 -19.3363 -19.3362 -19.3361 -19.3353 -19.3352
   -19.3348 -19.3342 -19.3338 -19.3336 -19.3334 -19.3333 -19.3332 -19.3327
   -19.3326 -19.3323 -19.3320 -19.3316 -19.3312 -19.3310 -19.3306 -19.3303
   -19.3302 -19.3299 -19.3298 -19.3291 -19.3287 -19.3286 -19.3285 -19.3285
   -19.3284 -19.3282 -19.3281 -19.3277 -19.3272 -19.3270 -19.3269 -19.3260
   -19.3256 -19.3255 -19.3251 -19.3244 -19.3235 -19.3234 -19.3232 -19.3227
   -19.3224 -19.3220 -19.3212 -19.3210 -19.3206 -19.3196 -19.3189 -19.3182
   -19.3175 -19.3170 -19.3167 -19.3161 -19.3138 -19.3129 -19.3124 -19.3118
   -19.3110 -19.3105 -19.3099 -19.3092 -19.3084 -19.3084 -19.3078 -19.3075
   -19.3074 -19.3068 -19.3060 -19.3058 -19.3057 -19.3057 -19.3056 -19.3055
   -19.3041 -19.3018 -19.3016 -19.2996 -19.2988 -19.2986 -19.2984 -19.2965
   -19.2936 -19.2919 -19.2903 -19.2820  -7.2437  -7.2357  -7.2345  -7.2283
    -7.2265  -7.2219  -7.2134  -7.2106  -7.2086  -7.2050  -7.2046  -7.2031
    -7.2016  -7.2010  -7.2002  -7.1972  -7.1969  -7.1935  -7.1916  -7.1911
    -7.1903  -7.1893  -7.1889  -7.1886  -7.1871  -7.1866  -7.1862  -7.1850
    -7.1846  -7.1845  -7.1833  -7.1831  -7.1820  -7.1805  -7.1796  -7.1794
    -7.1782  -7.1773  -7.1766  -7.1765  -7.1743  -7.1740  -7.1739  -7.1731
    -7.1723  -7.1720  -7.1705  -7.1700  -7.1697  -7.1694  -7.1684  -7.1679
    -7.1677  -7.1676  -7.1672  -7.1670  -7.1655  -7.1652  -7.1639  -7.1637
    -7.1632  -7.1624  -7.1614  -7.1599  -7.1597  -7.1592  -7.1586  -7.1580
    -7.1574  -7.1568  -7.1560  -7.1554  -7.1543  -7.1542  -7.1537  -7.1537
    -7.1530  -7.1526  -7.1520  -7.1519  -7.1513  -7.1508  -7.1502  -7.1499
    -7.1492  -7.1484  -7.1482  -7.1479  -7.1476  -7.1473  -7.1470  -7.1461
    -7.1457  -7.1456  -7.1447  -7.1445  -7.1442  -7.1435  -7.1434  -7.1428
    -7.1427  -7.1423  -7.1415  -7.1410  -7.1407  -7.1405  -7.1399  -7.1394
    -7.1389  -7.1385  -7.1382  -7.1379  -7.1374  -7.1374  -7.1368  -7.1364
    -7.1361  -7.1358  -7.1351  -7.1350  -7.1341  -7.1337  -7.1335  -7.1332
    -7.1327  -7.1319  -7.1318  -7.1309  -7.1304  -7.1303  -7.1296  -7.1292
    -7.1289  -7.1286  -7.1276  -7.1274  -7.1272  -7.1267  -7.1264  -7.1260
    -7.1251  -7.1250  -7.1245  -7.1240  -7.1235  -7.1231  -7.1229  -7.1222
    -7.1215  -7.1214  -7.1211  -7.1207  -7.1204  -7.1199  -7.1193  -7.1189
    -7.1186  -7.1182  -7.1178  -7.1176  -7.1170  -7.1168  -7.1167  -7.1162
    -7.1157  -7.1155  -7.1153  -7.1144  -7.1140  -7.1139  -7.1129  -7.1126
    -7.1124  -7.1120  -7.1111  -7.1106  -7.1101  -7.1099  -7.1096  -7.1086
    -7.1081  -7.1080  -7.1075  -7.1072  -7.1067  -7.1062  -7.1061  -7.1058
    -7.1051  -7.1045  -7.1045  -7.1038  -7.1033  -7.1030  -7.1025  -7.1019
    -7.1016  -7.1014  -7.1010  -7.1009  -7.1001  -7.1000  -7.0996  -7.0992
    -7.0990  -7.0988  -7.0985  -7.0985  -7.0979  -7.0976  -7.0973  -7.0971
    -7.0967  -7.0961  -7.0957  -7.0955  -7.0954  -7.0948  -7.0945  -7.0944
    -7.0942  -7.0933  -7.0931  -7.0927  -7.0923  -7.0920  -7.0918  -7.0915
    -7.0912  -7.0910  -7.0906  -7.0902  -7.0900  -7.0895  -7.0890  -7.0884
    -7.0883  -7.0877  -7.0874  -7.0872  -7.0870  -7.0866  -7.0862  -7.0861
    -7.0857  -7.0849  -7.0846  -7.0843  -7.0842  -7.0835  -7.0835  -7.0831
    -7.0827  -7.0825  -7.0823  -7.0821  -7.0818  -7.0812  -7.0811  -7.0806
    -7.0804  -7.0801  -7.0795  -7.0794  -7.0792  -7.0791  -7.0790  -7.0786
    -7.0780  -7.0780  -7.0778  -7.0776  -7.0771  -7.0770  -7.0767  -7.0766
    -7.0759  -7.0757  -7.0752  -7.0749  -7.0746  -7.0746  -7.0742  -7.0737
    -7.0734  -7.0730  -7.0727  -7.0722  -7.0717  -7.0712  -7.0711  -7.0708
    -7.0708  -7.0703  -7.0697  -7.0693  -7.0690  -7.0684  -7.0681  -7.0677
    -7.0673  -7.0670  -7.0668  -7.0661  -7.0660  -7.0655  -7.0652  -7.0647
    -7.0647  -7.0645  -7.0643  -7.0638  -7.0633  -7.0631  -7.0627  -7.0623
    -7.0622  -7.0618  -7.0618  -7.0614  -7.0605  -7.0604  -7.0602  -7.0599
    -7.0594  -7.0585  -7.0583  -7.0580  -7.0578  -7.0573  -7.0571  -7.0567
    -7.0566  -7.0563  -7.0559  -7.0556  -7.0551  -7.0545  -7.0543  -7.0540
    -7.0537  -7.0535  -7.0530  -7.0527  -7.0522  -7.0516  -7.0513  -7.0510
    -7.0507  -7.0501  -7.0495  -7.0491  -7.0488  -7.0484  -7.0482  -7.0475
    -7.0469  -7.0467  -7.0465  -7.0460  -7.0457  -7.0455  -7.0453  -7.0449
    -7.0442  -7.0439  -7.0434  -7.0431  -7.0428  -7.0426  -7.0420  -7.0417
    -7.0414  -7.0407  -7.0405  -7.0399  -7.0396  -7.0394  -7.0388  -7.0382
    -7.0380  -7.0377  -7.0374  -7.0364  -7.0361  -7.0360  -7.0354  -7.0353
    -7.0350  -7.0346  -7.0341  -7.0338  -7.0331  -7.0326  -7.0325  -7.0319
    -7.0317  -7.0312  -7.0307  -7.0300  -7.0293  -7.0285  -7.0283  -7.0278
    -7.0273  -7.0273  -7.0263  -7.0258  -7.0249  -7.0248  -7.0238  -7.0233
    -7.0232  -7.0222  -7.0221  -7.0215  -7.0212  -7.0211  -7.0209  -7.0202
    -7.0199  -7.0197  -7.0194  -7.0193  -7.0191  -7.0188  -7.0182  -7.0175
    -7.0171  -7.0169  -7.0166  -7.0157  -7.0155  -7.0151  -7.0146  -7.0140
    -7.0136  -7.0129  -7.0126  -7.0125  -7.0123  -7.0121  -7.0117  -7.0116
    -7.0112  -7.0109  -7.0103  -7.0092  -7.0089  -7.0085  -7.0083  -7.0079
    -7.0076  -7.0075  -7.0070  -7.0061  -7.0057  -7.0055  -7.0051  -7.0046
    -7.0044  -7.0039  -7.0037  -7.0033  -7.0029  -7.0025  -7.0019  -7.0016
    -7.0009  -6.9997  -6.9993  -6.9988  -6.9973  -6.9958  -6.9952  -6.9946
    -6.9941  -6.9939  -6.9930  -6.9923  -6.9906  -6.9903  -6.9897  -6.9884
    -6.9882  -6.9875  -6.9869  -6.9862  -6.9858  -6.9852  -6.9838  -6.9837
    -6.9831  -6.9821  -6.9814  -6.9799  -6.9792  -6.9769  -6.9763  -6.9760
    -6.9741  -6.9740  -6.9726  -6.9725  -6.9724  -6.9711  -6.9694  -6.9686
    -6.9646  -6.9632  -6.9596  -6.9588  -6.9587  -6.9570  -6.9564  -6.9524
    -6.9514  -6.9508  -6.9501  -6.9487  -6.9482  -6.9480  -6.9457  -6.9436
    -6.9425  -6.9419  -6.9380  -6.9364  -6.9345  -6.9329  -6.9302  -6.9291
    -6.9273  -6.9219  -6.9077  -6.9051  -6.8975  -6.8953  -6.8884  -6.8868
    -3.6096  -3.5831  -3.5416  -3.5098  -3.3133  -3.3093  -3.2915  -3.2666
    -3.2475  -3.2418  -3.1908  -3.1717  -3.0400  -3.0176  -3.0004  -2.9954
    -2.9824  -2.9562  -2.9247  -2.8688  -2.7948  -2.7848  -2.7737  -2.7681
    -2.7438  -2.7392  -2.7219  -2.6898  -2.6613  -2.6560  -2.6337  -2.6250
    -2.5986  -2.5860  -2.5446  -2.5257  -2.4524  -2.4353  -2.4253  -2.4179
    -2.3992  -2.3819  -2.3726  -2.3386  -2.3375  -2.3198  -2.2922  -2.2827
    -2.2598  -2.2438  -2.2159  -2.2082  -2.1838  -2.1721  -2.1633  -2.0598
    -1.9798  -1.9494  -1.9225  -1.9118  -1.9045  -1.8799  -1.8570  -1.8420
    -1.8329  -1.8132  -1.8019  -1.7852  -1.7820  -1.7737  -1.7474  -1.7431
    -1.7129  -1.6863  -1.6775  -1.6163  -1.6104  -1.5761  -1.5682  -1.5296
    -1.5115  -1.5058  -1.4679  -1.4386  -1.3965  -1.3888  -1.3760  -1.3675
    -1.3464  -1.3225  -1.2543  -1.2399  -1.2172  -1.2096  -1.1899  -1.1558
    -1.0934  -1.0518  -0.9890  -0.9691  -0.9570  -0.9460  -0.9084  -0.8785
    -0.8672  -0.8277  -0.7812  -0.7692  -0.4550  -0.4016  -0.3611  -0.3063
     0.0764   0.0869   0.0961   0.0981   0.1055   0.1209   0.1253   0.1326
     0.1377   0.1526   0.1645   0.1771   0.1852   0.1963   0.2124   0.2202
     0.2332   0.2464   0.2477   0.2617   0.2687   0.2798   0.2859   0.2989
     0.3133   0.3212   0.3342   0.3474   0.3635   0.3821   0.3978   0.4117
     0.4346   0.4396   0.4470   0.4746   0.4810   0.5075   0.5255   0.5639
     0.5836   0.6062   0.6184   0.6240   0.7017   0.7203   0.7568   0.7779
     0.8009   0.8169   0.8685   0.8924   0.9518   0.9741   0.9987   1.0448
     1.3374   1.3432   1.3766   1.4059   1.4457   1.4555   1.4854   1.5184
     1.5702   1.5817   1.6003   1.6313   1.6767   1.7198   1.7371   1.7637
     1.7780   1.7847   1.8163   1.8418   1.9022   1.9188   1.9355   1.9619
     1.9824   2.0186   2.0369   2.1179   2.8343   2.8512   2.8832   2.9289
     2.9343   2.9766   2.9901   2.9984   3.0148   3.0379   3.0533   3.0705
     3.0839   3.0965   3.1029   3.1401   3.3009   3.3182   3.3240   3.3348
     3.3653   3.3663   3.3797   3.3932   3.3994   3.4175   3.4336   3.4453
     3.4592   3.4769   3.4875   3.5223   3.5541   3.5649   3.5779   3.5938
     3.6039   3.6089   3.6304   3.6444   3.6505   3.6636   3.6720   3.6983
     3.7107   3.7205   3.7312   3.7483   3.7603   3.7691   3.7883   3.7950
     3.8104   3.8298   3.8348   3.8390   3.8550   3.8753   3.8913   3.8965
     3.9134   3.9306   3.9433   3.9781   4.2156   4.2376   4.2663   4.2824
     4.3057   4.3153   4.3503   4.3926   4.4319   4.4435   4.4555   4.4661
     4.4792   4.4853   4.4950   4.5070   4.5297   4.5358   4.5400   4.5630
     4.5646   4.5710   4.5875   4.5950   4.6150   4.6244   4.6340   4.6694
     4.6806   4.6914   4.7073   4.7232   4.7353   4.7548   4.7760   4.7795
     4.8002   4.8232   4.8272   4.8529   4.8577   4.8774   4.8900   4.8928
     4.9105   4.9166   4.9304   4.9522   4.9730   4.9776   4.9964   5.0002
     5.0113   5.0348   5.0501   5.0515   5.0627   5.0671   5.0824   5.0946
     5.1087   5.1303   5.1391   5.1564   5.1619   5.1795   5.1816   5.2024
     5.2308   5.2587   5.2643   5.2792   5.2973   5.3138   5.3253   5.3447
     5.3571   5.3690   5.3798   5.3955   5.4057   5.4156   5.4448   5.4605
     5.4720   5.4848   5.4980   5.5041   5.5264   5.5376   5.5438   5.5625
     5.5666   5.5718   5.6095   5.6141   5.6325   5.6526   5.6539   5.6743
     5.6872   5.7096   5.7254   5.7381   5.7488   5.7760   5.7810   5.7993
     5.8285   5.8373   5.8758   5.8907   5.9182   5.9284   5.9442   5.9815
     6.0048   6.0174   6.0334   6.0603   6.0747   6.0977   6.1154   6.1278
     6.1522   6.1580   6.1796   6.1841   6.2079   6.2325   6.2611   6.2715
     6.2821   6.2998   6.3112   6.3368   6.3608   6.3709   6.3878   6.4247
     6.4424   6.4442   6.4966   6.5038   6.5189   6.5363   6.5506   6.5953
     6.6096   6.6246   6.6389   6.6612   6.6708   6.6947   6.7260   6.7431
     6.7572   6.7643   6.7727   6.8033   6.8279   6.8763   6.9117   6.9280
     6.9668   7.0269   7.0747   7.1215   7.4287   7.4732   7.5115   7.5562
     9.5972   9.6519   9.6627   9.6782   9.7101   9.7362   9.7830   9.8170
     9.8375   9.8486   9.8574   9.9059   9.9436   9.9702   9.9823   9.9874
     9.9986  10.0008  10.0186  10.0288  10.0415  10.0520  10.0603  10.0640
    10.0833  10.1119  10.1227  10.1301  10.1467  10.1646  10.1787  10.1931
    10.2526  10.2908  10.3101  10.3129  10.3364  10.3452  10.3625  10.3745
    10.3798  10.3853  10.4101  10.4241  10.4413  10.4435  10.4550  10.4621
    10.4798  10.4889  10.5003  10.5134  10.5242  10.5270  10.5313  10.5475
    10.5495  10.5640  10.5711  10.5862  10.6041  10.6065  10.6170  10.6368
    10.6638  10.6674  10.6819  10.6962  10.7044  10.7061  10.7113  10.7304
    10.7449  10.7471  10.7558  10.7618  10.7715  10.7794  10.7917  10.8033
    10.8184  10.8343  10.8492  10.8698  10.8971  10.9138  10.9277  10.9355
    10.9395  10.9582  10.9669  10.9728  10.9872  10.9927  11.0012  11.0036
    11.0118  11.0259  11.0298  11.0454  11.0642  11.0699  11.0876  11.1292
    11.1421  11.1612  11.1734  11.1999  11.4865  11.4992  11.5190  11.5553
    11.7166  11.7471  11.7681  11.7769  11.7832  11.8076  11.8159  11.8352
    11.8430  11.8538  11.8705  11.8831  11.9023  11.9067  11.9248  11.9348
    11.9427  11.9510  11.9716  11.9852  11.9881  12.0334  12.0398  12.0602
    12.0846  12.1021  12.1163  12.1325  12.1574  12.1724  12.1794  12.1844
    12.1921  12.2022  12.2172  12.2278  12.2385  12.2474  12.2803  12.3154
    12.4142  12.4250  12.4471  12.4558  12.4726  12.4765  12.4915  12.4938
    12.4991  12.5018  12.5103  12.5306  12.5413  12.5510  12.5610  12.5697
    12.6488  12.6608  12.6908  12.6959  12.7094  12.7174  12.7239  12.7283
    12.7355  12.7510  12.7588  12.7660  12.7722  12.7772  12.7895  12.7983
    12.8084  12.8180  12.8256  12.8275  12.8328  12.8391  12.8519  12.8644
    12.8669  12.8718  12.8783  12.8909  12.8929  12.9014  12.9069  12.9200
    12.9255  12.9306  12.9444  12.9488  12.9585  12.9734  12.9785  12.9871
    12.9978  13.0110  13.0215  13.0339  13.0485  13.0552  13.0630  13.0766
    13.0848  13.0878  13.1225  13.1335  13.2046  13.2183  13.2513  13.2614
    13.2741  13.2832  13.3063  13.3167  13.4076  13.4265  13.4303  13.4370
    13.4408  13.4480  13.4584  13.4664  13.4957  13.5096  13.5119  13.5233
    13.5409  13.5617  13.5733  13.5964  13.5987  13.6112  13.6170  13.6261
    13.6423  13.6504  13.6553  13.6701  13.6724  13.6868  13.6873  13.6950
    13.7172  13.7229  13.7244  13.7491  13.7594  13.7740  13.7844  13.8032
    13.8177  13.8203  13.8275  13.8329  13.8390  13.8476  13.8733  13.8858
    13.8993  13.9125  13.9173  13.9277  13.9480  13.9576  13.9699  13.9744
    14.0014  14.0114  14.0292  14.0457  14.1822  14.1847  14.2004  14.2102
    14.2224  14.2311  14.2412  14.2472  14.2540  14.2611  14.2660  14.2766
    14.2816  14.2887  14.2982  14.3024  14.3177  14.3196  14.3267  14.3293
    14.3409  14.3555  14.3589  14.3700  14.3729  14.3814  14.3931  14.3979
    14.4030  14.4154  14.4204  14.4343  14.4391  14.4413  14.4485  14.4599
    14.4755  14.4847  14.5035  14.5142  14.5164  14.5300  14.5466  14.5570
    14.5652  14.5763  14.5835  14.5951  14.5981  14.6139  14.6272  14.6317
    14.6355  14.6456  14.6516  14.6595  14.6742  14.6802  14.6878  14.6983
    14.7202  14.7228  14.7398  14.7541  14.7708  14.7922  14.8461  14.8704
    15.0600  15.0666  15.0815  15.0839  15.0937  15.1032  15.1139  15.1457
    15.2382  15.2641  15.2868  15.3066  15.3243  15.3491  15.3705  15.3849
    15.5580  15.5753  15.5806  15.5887  15.5985  15.6044  15.6123  15.6318
    15.6477  15.6529  15.6570  15.6597  15.6837  15.6889  15.7030  15.7209
    15.8589  15.8723  15.8904  15.9056  15.9357  15.9487  15.9598  15.9775
    15.9854  15.9886  16.0119  16.0140  16.0235  16.0337  16.0626  16.0684
    16.0781  16.0903  16.1048  16.1179  16.1432  16.1645  16.1745  16.1982
    16.2186  16.2217  16.2458  16.2562  16.2754  16.2764  16.2870  16.3012
    16.3128  16.3197  16.3340  16.3409  16.3553  16.3612  16.3731  16.3929
    16.4286  16.4574  16.4847  16.4920  16.5081  16.5191  16.5360  16.5480
    16.5787  16.5911  16.6001  16.6077  16.6176  16.6353  16.6528  16.6578
    16.7393  16.7683  16.7740  16.7951  16.8440  16.8645  16.8768  16.8849
    16.8997  16.9154  16.9213  16.9266  16.9386  16.9450  16.9491  16.9515
    16.9611  16.9617  16.9687  16.9921  16.9948  17.0031  17.0193  17.0212
    17.0473  17.0540  17.0973  17.1032  17.1903  17.1981  17.2161  17.2184
    17.2216  17.2350  17.2384  17.2442  17.2485  17.2641  17.2730  17.2886
    17.2964  17.2977  17.3076  17.3268  17.3282  17.3341  17.3490  17.3587
    17.3743  17.3922  17.3962  17.4059  17.4345  17.4519  17.4631  17.4725
    17.4792  17.4844  17.4994  17.5066  17.5221  17.5365  17.5482  17.5515
    17.5595  17.5690  17.5775  17.5875  17.6056  17.6155  17.6205  17.6244
    17.6289  17.6404  17.6538  17.6598  17.6679  17.6748  17.6940  17.7102
    17.7691  17.7783  17.7992  17.8029  17.8169  17.8298  17.8389  17.8401
    17.8552  17.8602  17.8667  17.8751  17.8853  17.8935  17.8973  17.9112
    17.9233  17.9238  17.9401  17.9503  17.9574  17.9664  17.9734  17.9798
    17.9813  17.9865  18.0107  18.0241  18.0275  18.0478  18.0509  18.0582
    18.0678  18.0756  18.0898  18.0994  18.1069  18.1212  18.1301  18.1427
    18.1433  18.1489  18.1641  18.1888  18.2943  18.3304  18.3463  18.3834
    18.3912  18.4003  18.4281  18.4328  18.4567  18.4629  18.4724  18.4773
    18.5077  18.5150  18.5240  18.5291  18.5429  18.5556  18.5581  18.5650
    18.5739  18.5904  18.5955  18.6000  18.6207  18.6235  18.6357  18.6464
    18.6578  18.6642  18.6715  18.6767  18.6888  18.7210  18.7317  18.7463
    18.7973  18.8301  18.8431  18.8875  18.9062  18.9379  18.9396  18.9559
    18.9915  18.9919  19.0057  19.0100  19.0245  19.0272  19.0329  19.0566
    19.0710  19.0888  19.0911  19.1149  19.1494  19.1885  19.2131  19.2318
    19.2828  19.2943  19.3119  19.3169  19.3364  19.3400  19.3575  19.3676
    19.3933  19.4233  19.4342  19.4594  19.4658  19.4832  19.4916  19.5077
    19.5224  19.5280  19.5352  19.5447  19.5546  19.5660  19.5680  19.5716

     highest occupied, lowest unoccupied level (ev):     7.6559    8.7123

!    total energy              =  -38619.25038686 Ry
     estimated scf accuracy    <       0.00000207 Ry

     The total energy is the sum of the following terms:
     one-electron contribution =  -20376.04016650 Ry
     hartree contribution      =   12191.06411018 Ry
     xc contribution           =   -9605.52921464 Ry
     ewald contribution        =  -20824.44572144 Ry
     Hubbard energy            =      -4.29939447 Ry

     convergence has been achieved in  12 iterations

     Writing all to output data dir ./tmp_In0.0Ga1.0As0.75Sb0.25_cube_3x3x3.1/In0.0Ga1.0As0.75Sb0.25_cube_3x3x3.1.save/ :
     XML data file, charge density, pseudopotentials, collected wavefunctions

     init_run     :    216.63s CPU    219.15s WALL (       1 calls)
     electrons    :   8092.94s CPU   8121.18s WALL (       1 calls)

     Called by init_run:
     wfcinit      :    207.00s CPU    209.18s WALL (       1 calls)
     potinit      :      2.05s CPU      2.10s WALL (       1 calls)
     hinit0       :      1.70s CPU      1.73s WALL (       1 calls)

     Called by electrons:
     c_bands      :   7833.39s CPU   7860.40s WALL (      13 calls)
     sum_band     :    254.62s CPU    255.19s WALL (      13 calls)
     v_of_rho     :      3.30s CPU      3.43s WALL (      13 calls)
     mix_rho      :      0.71s CPU      0.72s WALL (      13 calls)

     Called by c_bands:
     init_us_2    :     29.39s CPU     29.88s WALL (      28 calls)
     cegterg      :   7453.62s CPU   7479.31s WALL (      13 calls)

     Called by *egterg:
     cdiaghg      :    683.99s CPU    684.80s WALL (     101 calls)
     h_psi        :   4449.80s CPU   4458.83s WALL (     103 calls)
     g_psi        :      3.72s CPU      3.72s WALL (      89 calls)

     Called by h_psi:
     h_psi:calbec :    779.81s CPU    779.87s WALL (     103 calls)
     vloc_psi     :    620.80s CPU    622.25s WALL (     103 calls)
     add_vuspsi   :    761.74s CPU    764.42s WALL (     103 calls)
     vhpsi        :   2280.07s CPU   2279.98s WALL (     103 calls)

     General routines
     calbec       :    990.01s CPU    990.10s WALL (     220 calls)
     fft          :      3.04s CPU      3.18s WALL (     131 calls)
     ffts         :      0.20s CPU      0.21s WALL (      13 calls)
     fftw         :    617.30s CPU    618.93s WALL (  159588 calls)

     Parallel routines

     Hubbard U routines
     new_ns       :     56.47s CPU     56.49s WALL (      13 calls)
     vhpsi        :   2280.07s CPU   2279.98s WALL (     103 calls)

     PWSCF        :      2h18m CPU      2h20m WALL


   This run was terminated on:  15:44:34  13Jun2025            

=------------------------------------------------------------------------------=
   JOB DONE.
=------------------------------------------------------------------------------=
