
     Program PWSCF v.7.3.1 starts on 14Jun2025 at  2:55:12 

     This program is part of the open-source Quantum ESPRESSO suite
     for quantum simulation of materials; please cite
         "P. Giannozzi et al., J. Phys.:Condens. Matter 21 395502 (2009);
         "P. Giannozzi et al., J. Phys.:Condens. Matter 29 465901 (2017);
         "P. Giannozzi et al., J. Chem. Phys. 152 154105 (2020);
          URL http://www.quantum-espresso.org", 
     in publications or presentations arising from this work. More details at
     http://www.quantum-espresso.org/quote

     Parallel version (MPI), running on   640 processors

     MPI processes distributed on     5 nodes
     480527 MiB available memory on the printing compute node when the environment starts

     Reading input from In0.0Ga1.0As0.25Sb0.75_cube_3x3x3.7.scf.in
Warning: card &CELL ignored
Warning: card   CELL_DOFREE = 'ALL', ignored
Warning: card / ignored

     Current dimensions of program PWSCF are:
     Max number of different atomic species (ntypx) = 10
     Max number of k-points (npk) =  40000
     Max angular momentum in pseudopotentials (lmaxx) =  4

     K-points division:     npool     =       8
     R & G space division:  proc/nbgrp/npool/nimage =      80
     Subspace diagonalization in iterative solution of the eigenvalue problem:
     one sub-group per band group will be used
     custom distributed-memory algorithm (size of sub-group:  8*  8 procs)


     Parallelization info
     --------------------
     sticks:   dense  smooth     PW     G-vecs:    dense   smooth      PW
     Min         552     552    142                87466    87466   11414
     Max         553     553    143                87473    87473   11419
     Sum       44221   44221  11385              6997649  6997649  913281

     Using Slab Decomposition



     bravais-lattice index     =            1
     lattice parameter (alat)  =      34.0299  a.u.
     unit-cell volume          =   39407.6244 (a.u.)^3
     number of atoms/cell      =          216
     number of atomic types    =            4
     number of electrons       =      3024.00
     number of Kohn-Sham states=         2160
     kinetic-energy cutoff     =     120.0000  Ry
     charge density cutoff     =     480.0000  Ry
     scf convergence threshold =      1.0E-05
     mixing beta               =       0.6500
     number of iterations used =            8  plain     mixing
     Exchange-correlation= PBE
                           (   1   4   3   4   0   0   0)
     Hubbard projectors: atomic
     Hubbard parameters of DFT+U (Dudarev formulation) in eV:
     U(As-4p) =  5.8400
     U(Ga-4p) = -2.3350
     U(In-5p) = -1.0575
     U(Sb-5p) =  4.8900

     Internal variables: lda_plus_u =T, lda_plus_u_kind = 0

     celldm(1)=  34.029854  celldm(2)=   0.000000  celldm(3)=   0.000000
     celldm(4)=   0.000000  celldm(5)=   0.000000  celldm(6)=   0.000000

     crystal axes: (cart. coord. in units of alat)
               a(1) = (   1.000000   0.000000   0.000000 )  
               a(2) = (   0.000000   1.000000   0.000000 )  
               a(3) = (   0.000000   0.000000   1.000000 )  

     reciprocal axes: (cart. coord. in units 2 pi/alat)
               b(1) = (  1.000000  0.000000  0.000000 )  
               b(2) = (  0.000000  1.000000  0.000000 )  
               b(3) = (  0.000000  0.000000  1.000000 )  


     PseudoPot. # 1 for As read from file:
     /work/i254/i254/gentles/data/pseudos/As.pbe.NC-SR.standard.v0.5.UPF
     MD5 check sum: bfe1a874457ce592347346129958e7cf
     Pseudo is Norm-conserving + core correction, Zval = 15.0
     Generated using ONCVPSP code by D. R. Hamann
     Using radial grid of 1358 points,  6 beta functions with: 
                l(1) =   0
                l(2) =   0
                l(3) =   1
                l(4) =   1
                l(5) =   2
                l(6) =   2

     PseudoPot. # 2 for Ga read from file:
     /work/i254/i254/gentles/data/pseudos/Ga.pbe.NC-SR.standard.v0.5.UPF
     MD5 check sum: 2bb81bf6f0a8d9832cf3329850435ecf
     Pseudo is Norm-conserving + core correction, Zval = 13.0
     Generated using ONCVPSP code by D. R. Hamann
     Using radial grid of 1902 points,  6 beta functions with: 
                l(1) =   0
                l(2) =   0
                l(3) =   1
                l(4) =   1
                l(5) =   2
                l(6) =   2

     PseudoPot. # 3 for In read from file:
     /work/i254/i254/gentles/data/pseudos/In.pbe.NC-SR.standard.v0.5.UPF
     MD5 check sum: 835f4bf908c982ff75c88e16816a8d7f
     Pseudo is Norm-conserving + core correction, Zval = 13.0
     Generated using ONCVPSP code by D. R. Hamann
     Using radial grid of 1964 points,  6 beta functions with: 
                l(1) =   0
                l(2) =   0
                l(3) =   1
                l(4) =   1
                l(5) =   2
                l(6) =   2

     PseudoPot. # 4 for Sb read from file:
     /work/i254/i254/gentles/data/pseudos/Sb.pbe.NC-SR.standard.v0.5.UPF
     MD5 check sum: 127f69b6101c45666faeae1b5d611565
     Pseudo is Norm-conserving + core correction, Zval = 15.0
     Generated using ONCVPSP code by D. R. Hamann
     Using radial grid of 1434 points,  6 beta functions with: 
                l(1) =   0
                l(2) =   0
                l(3) =   1
                l(4) =   1
                l(5) =   2
                l(6) =   2

     atomic species   valence    mass     pseudopotential
     As               15.00    74.92160     As( 1.00)
     Ga               13.00    69.72300     Ga( 1.00)
     In               13.00   114.81800     In( 1.00)
     Sb               15.00   121.76000     Sb( 1.00)

     No symmetry found



   Cartesian axes

     site n.     atom                  positions (alat units)
         1        Ga     tau(   1) = (  -0.0025760   0.0011190  -0.0013600  )
         2        Ga     tau(   2) = (  -0.0025300   0.1679000   0.1664120  )
         3        Ga     tau(   3) = (   0.1619810  -0.0049690   0.1712410  )
         4        Ga     tau(   4) = (   0.1654450   0.1661910  -0.0007090  )
         5        Sb     tau(   5) = (   0.0822920   0.0820860   0.0850280  )
         6        Sb     tau(   6) = (   0.0775560   0.2533000   0.2539420  )
         7        Sb     tau(   7) = (   0.2477190   0.0837360   0.2509960  )
         8        Sb     tau(   8) = (   0.2494810   0.2537680   0.0816480  )
         9        Ga     tau(   9) = (   0.0036740  -0.0034110   0.3304520  )
        10        Ga     tau(  10) = (  -0.0099440   0.1673670   0.4985350  )
        11        Ga     tau(  11) = (   0.1642000   0.0014750   0.5104540  )
        12        Ga     tau(  12) = (   0.1636380   0.1689060   0.3369290  )
        13        Sb     tau(  13) = (   0.0807190   0.0824750   0.4203880  )
        14        Sb     tau(  14) = (   0.0798140   0.2497330   0.5818210  )
        15        As     tau(  15) = (   0.2482880   0.0830900   0.5845550  )
        16        Sb     tau(  16) = (   0.2473250   0.2525630   0.4219200  )
        17        Ga     tau(  17) = (  -0.0054120  -0.0034000   0.6620920  )
        18        Ga     tau(  18) = (  -0.0051310   0.1720540   0.8248930  )
        19        Ga     tau(  19) = (   0.1639760   0.0000320   0.8303670  )
        20        Ga     tau(  20) = (   0.1686220   0.1636330   0.6607310  )
        21        Sb     tau(  21) = (   0.0792610   0.0830540   0.7445820  )
        22        Sb     tau(  22) = (   0.0824320   0.2512650   0.9139370  )
        23        Sb     tau(  23) = (   0.2493710   0.0837050   0.9140830  )
        24        Sb     tau(  24) = (   0.2501950   0.2517230   0.7467900  )
        25        Ga     tau(  25) = (  -0.0016420   0.3333090   0.0004210  )
        26        Ga     tau(  26) = (  -0.0112370   0.4993380   0.1674950  )
        27        Ga     tau(  27) = (   0.1637080   0.3346880   0.1688480  )
        28        Ga     tau(  28) = (   0.1703840   0.4953850  -0.0052480  )
        29        Sb     tau(  29) = (   0.0806550   0.4192850   0.0835440  )
        30        Sb     tau(  30) = (   0.0792950   0.5800330   0.2504960  )
        31        Sb     tau(  31) = (   0.2483490   0.4164460   0.2543290  )
        32        Sb     tau(  32) = (   0.2522240   0.5817730   0.0790250  )
        33        Ga     tau(  33) = (  -0.0063450   0.3382960   0.3400320  )
        34        Ga     tau(  34) = (   0.0042970   0.4943380   0.4967350  )
        35        Ga     tau(  35) = (   0.1624580   0.3422210   0.5020370  )
        36        Ga     tau(  36) = (   0.1588690   0.4949020   0.3392190  )
        37        As     tau(  37) = (   0.0803750   0.4147430   0.4176410  )
        38        Sb     tau(  38) = (   0.0871080   0.5814710   0.5824570  )
        39        As     tau(  39) = (   0.2469320   0.4181290   0.5833360  )
        40        Sb     tau(  40) = (   0.2484520   0.5802730   0.4195420  )
        41        Ga     tau(  41) = (  -0.0038900   0.3279270   0.6731240  )
        42        Ga     tau(  42) = (  -0.0017360   0.4998740   0.8326720  )
        43        Ga     tau(  43) = (   0.1720190   0.3385060   0.8366180  )
        44        Ga     tau(  44) = (   0.1750840   0.4999740   0.6674360  )
        45        Sb     tau(  45) = (   0.0852010   0.4170240   0.7497470  )
        46        Sb     tau(  46) = (   0.0831300   0.5827260   0.9168010  )
        47        As     tau(  47) = (   0.2523970   0.4200390   0.9132850  )
        48        As     tau(  48) = (   0.2512080   0.5821740   0.7503560  )
        49        Ga     tau(  49) = (  -0.0062120   0.6612450   0.0047890  )
        50        Ga     tau(  50) = (   0.0028610   0.8373930   0.1712560  )
        51        Ga     tau(  51) = (   0.1659390   0.6631950   0.1652810  )
        52        Ga     tau(  52) = (   0.1649110   0.8287160  -0.0028560  )
        53        Sb     tau(  53) = (   0.0800950   0.7485550   0.0845700  )
        54        As     tau(  54) = (   0.0820600   0.9168510   0.2507010  )
        55        Sb     tau(  55) = (   0.2473360   0.7497460   0.2509280  )
        56        Sb     tau(  56) = (   0.2476780   0.9142890   0.0827450  )
        57        Ga     tau(  57) = (  -0.0010980   0.6670180   0.3356300  )
        58        Ga     tau(  58) = (   0.0039270   0.8397830   0.5058700  )
        59        Ga     tau(  59) = (   0.1715670   0.6715850   0.5039660  )
        60        Ga     tau(  60) = (   0.1615740   0.8389250   0.3309220  )
        61        Sb     tau(  61) = (   0.0834940   0.7530080   0.4192260  )
        62        As     tau(  62) = (   0.0821370   0.9191690   0.5856550  )
        63        As     tau(  63) = (   0.2481440   0.7492930   0.5863550  )
        64        Sb     tau(  64) = (   0.2470560   0.9172260   0.4220690  )
        65        Ga     tau(  65) = (   0.0000690   0.6639150   0.6655690  )
        66        Ga     tau(  66) = (  -0.0046140   0.8368650   0.8275960  )
        67        Ga     tau(  67) = (   0.1692670   0.6622530   0.8270100  )
        68        Ga     tau(  68) = (   0.1644450   0.8339070   0.6586500  )
        69        Sb     tau(  69) = (   0.0833830   0.7503780   0.7469830  )
        70        Sb     tau(  70) = (   0.0809550   0.9161060   0.9146190  )
        71        Sb     tau(  71) = (   0.2521170   0.7467580   0.9129660  )
        72        Sb     tau(  72) = (   0.2482710   0.9166880   0.7452550  )
        73        Ga     tau(  73) = (   0.3328530  -0.0002260  -0.0009050  )
        74        Ga     tau(  74) = (   0.3346620   0.1676280   0.1659100  )
        75        Ga     tau(  75) = (   0.5036840   0.0007420   0.1680040  )
        76        Ga     tau(  76) = (   0.5069260   0.1622190  -0.0053160  )
        77        Sb     tau(  77) = (   0.4195070   0.0830500   0.0816470  )
        78        Sb     tau(  78) = (   0.4206800   0.2507500   0.2508020  )
        79        Sb     tau(  79) = (   0.5862930   0.0883820   0.2535630  )
        80        Sb     tau(  80) = (   0.5892280   0.2494200   0.0803980  )
        81        Ga     tau(  81) = (   0.3332680   0.0003610   0.3358580  )
        82        Ga     tau(  82) = (   0.3274710   0.1635560   0.5060230  )
        83        Ga     tau(  83) = (   0.4998310  -0.0000440   0.5006970  )
        84        Ga     tau(  84) = (   0.5062420   0.1736670   0.3422750  )
        85        Sb     tau(  85) = (   0.4163220   0.0865310   0.4190740  )
        86        Sb     tau(  86) = (   0.4172000   0.2521720   0.5821400  )
        87        Sb     tau(  87) = (   0.5843320   0.0853670   0.5838300  )
        88        As     tau(  88) = (   0.5882200   0.2526430   0.4202330  )
        89        Ga     tau(  89) = (   0.3292170   0.0051220   0.6628850  )
        90        Ga     tau(  90) = (   0.3352860   0.1676300   0.8312990  )
        91        Ga     tau(  91) = (   0.5106500   0.0002960   0.8322100  )
        92        Ga     tau(  92) = (   0.4999140   0.1686300   0.6682420  )
        93        Sb     tau(  93) = (   0.4190730   0.0812030   0.7499380  )
        94        Sb     tau(  94) = (   0.4185430   0.2506710   0.9165830  )
        95        As     tau(  95) = (   0.5859370   0.0844410   0.9127810  )
        96        Sb     tau(  96) = (   0.5879280   0.2512770   0.7494630  )
        97        Ga     tau(  97) = (   0.3308470   0.3402950  -0.0063110  )
        98        Ga     tau(  98) = (   0.3320610   0.4996150   0.1682870  )
        99        Ga     tau(  99) = (   0.5019130   0.3345260   0.1616950  )
       100        Ga     tau( 100) = (   0.5022980   0.5083750  -0.0004110  )
       101        Sb     tau( 101) = (   0.4169500   0.4206680   0.0803590  )
       102        Sb     tau( 102) = (   0.4186760   0.5832970   0.2487430  )
       103        Sb     tau( 103) = (   0.5858510   0.4161220   0.2492870  )
       104        As     tau( 104) = (   0.5852030   0.5843030   0.0821290  )
       105        Ga     tau( 105) = (   0.3348070   0.3317780   0.3357780  )
       106        Ga     tau( 106) = (   0.3301520   0.4944420   0.5060610  )
       107        Ga     tau( 107) = (   0.5099830   0.3334860   0.5007070  )
       108        Ga     tau( 108) = (   0.5000770   0.4987700   0.3346020  )
       109        Sb     tau( 109) = (   0.4186510   0.4148070   0.4208160  )
       110        Sb     tau( 110) = (   0.4163940   0.5814340   0.5867480  )
       111        As     tau( 111) = (   0.5857520   0.4139390   0.5842530  )
       112        Sb     tau( 112) = (   0.5862310   0.5815830   0.4175630  )
       113        Ga     tau( 113) = (   0.3294290   0.3396400   0.6601290  )
       114        Ga     tau( 114) = (   0.3320240   0.5048740   0.8354910  )
       115        Ga     tau( 115) = (   0.5001090   0.3353620   0.8311920  )
       116        Ga     tau( 116) = (   0.5102710   0.4995710   0.6667030  )
       117        Sb     tau( 117) = (   0.4159360   0.4211690   0.7479360  )
       118        As     tau( 118) = (   0.4188440   0.5804500   0.9143860  )
       119        Sb     tau( 119) = (   0.5841050   0.4193590   0.9163640  )
       120        As     tau( 120) = (   0.5849950   0.5821490   0.7496390  )
       121        Ga     tau( 121) = (   0.3404390   0.6614700  -0.0074440  )
       122        Ga     tau( 122) = (   0.3338610   0.8300720   0.1651770  )
       123        Ga     tau( 123) = (   0.5060390   0.6615930   0.1614710  )
       124        Ga     tau( 124) = (   0.5012630   0.8322080  -0.0029580  )
       125        Sb     tau( 125) = (   0.4193010   0.7464370   0.0806600  )
       126        Sb     tau( 126) = (   0.4173630   0.9157960   0.2500960  )
       127        Sb     tau( 127) = (   0.5874060   0.7459390   0.2479560  )
       128        Sb     tau( 128) = (   0.5869870   0.9159720   0.0809580  )
       129        Ga     tau( 129) = (   0.3325590   0.6644520   0.3340010  )
       130        Ga     tau( 130) = (   0.3285960   0.8273230   0.5066870  )
       131        Ga     tau( 131) = (   0.5007420   0.6662850   0.5021770  )
       132        Ga     tau( 132) = (   0.5020320   0.8309110   0.3331810  )
       133        Sb     tau( 133) = (   0.4155600   0.7491250   0.4186980  )
       134        Sb     tau( 134) = (   0.4150330   0.9164430   0.5854530  )
       135        Sb     tau( 135) = (   0.5842550   0.7509320   0.5889660  )
       136        Sb     tau( 136) = (   0.5851000   0.9159040   0.4177980  )
       137        Ga     tau( 137) = (   0.3259070   0.6664590   0.6683740  )
       138        Ga     tau( 138) = (   0.3346870   0.8343050   0.8307670  )
       139        Ga     tau( 139) = (   0.4999960   0.6549980   0.8317800  )
       140        Ga     tau( 140) = (   0.5033100   0.8389490   0.6734610  )
       141        Sb     tau( 141) = (   0.4180240   0.7466620   0.7501710  )
       142        Sb     tau( 142) = (   0.4197330   0.9189230   0.9141020  )
       143        Sb     tau( 143) = (   0.5842280   0.7454430   0.9133840  )
       144        As     tau( 144) = (   0.5856530   0.9168350   0.7518830  )
       145        Ga     tau( 145) = (   0.6634190   0.0051040  -0.0067670  )
       146        Ga     tau( 146) = (   0.6744490   0.1734220   0.1726240  )
       147        Ga     tau( 147) = (   0.8329290   0.0023850   0.1655220  )
       148        Ga     tau( 148) = (   0.8280780   0.1720470  -0.0052780  )
       149        Sb     tau( 149) = (   0.7482840   0.0865280   0.0812230  )
       150        As     tau( 150) = (   0.7525480   0.2523820   0.2544030  )
       151        Sb     tau( 151) = (   0.9160720   0.0850700   0.2523440  )
       152        Sb     tau( 152) = (   0.9114120   0.2524390   0.0849920  )
       153        Ga     tau( 153) = (   0.6692740   0.0012240   0.3348690  )
       154        Ga     tau( 154) = (   0.6687490   0.1746000   0.5017350  )
       155        Ga     tau( 155) = (   0.8371440   0.0083500   0.5063960  )
       156        Ga     tau( 156) = (   0.8350130   0.1763180   0.3346520  )
       157        Sb     tau( 157) = (   0.7524360   0.0889930   0.4184880  )
       158        As     tau( 158) = (   0.7524250   0.2502070   0.5813020  )
       159        As     tau( 159) = (   0.9162560   0.0867140   0.5850490  )
       160        As     tau( 160) = (   0.9147910   0.2520930   0.4172910  )
       161        Ga     tau( 161) = (   0.6629460  -0.0025270   0.6711090  )
       162        Ga     tau( 162) = (   0.6690280   0.1672400   0.8395050  )
       163        Ga     tau( 163) = (   0.8392640  -0.0052140   0.8273160  )
       164        Ga     tau( 164) = (   0.8347510   0.1698690   0.6622260  )
       165        Sb     tau( 165) = (   0.7517320   0.0839040   0.7500580  )
       166        As     tau( 166) = (   0.7496840   0.2498160   0.9143930  )
       167        Sb     tau( 167) = (   0.9154200   0.0862320   0.9127280  )
       168        As     tau( 168) = (   0.9116450   0.2490810   0.7476560  )
       169        Ga     tau( 169) = (   0.6739700   0.3324220  -0.0055450  )
       170        Ga     tau( 170) = (   0.6659410   0.5066140   0.1644950  )
       171        Ga     tau( 171) = (   0.8321940   0.3353600   0.1779860  )
       172        Ga     tau( 172) = (   0.8370390   0.5028280   0.0021640  )
       173        Sb     tau( 173) = (   0.7520190   0.4180730   0.0856110  )
       174        As     tau( 174) = (   0.7515170   0.5814870   0.2441580  )
       175        As     tau( 175) = (   0.9143970   0.4168300   0.2529990  )
       176        As     tau( 176) = (   0.9128900   0.5820050   0.0848290  )
       177        Ga     tau( 177) = (   0.6676600   0.3264070   0.3341420  )
       178        Ga     tau( 178) = (   0.6636810   0.4937190   0.5048030  )
       179        Ga     tau( 179) = (   0.8335230   0.3258920   0.4993240  )
       180        Ga     tau( 180) = (   0.8308960   0.4992260   0.3242490  )
       181        Sb     tau( 181) = (   0.7504770   0.4143210   0.4158920  )
       182        Sb     tau( 182) = (   0.7470450   0.5823080   0.5871270  )
       183        Sb     tau( 183) = (   0.9184390   0.4119030   0.5825930  )
       184        Sb     tau( 184) = (   0.9150550   0.5790360   0.4158030  )
       185        Ga     tau( 185) = (   0.6699790   0.3322560   0.6574470  )
       186        Ga     tau( 186) = (   0.6639430   0.5031360   0.8287600  )
       187        Ga     tau( 187) = (   0.8301680   0.3242280   0.8310210  )
       188        Ga     tau( 188) = (   0.8348610   0.4976370   0.6657350  )
       189        Sb     tau( 189) = (   0.7492400   0.4140850   0.7481380  )
       190        Sb     tau( 190) = (   0.7484750   0.5844390   0.9176100  )
       191        Sb     tau( 191) = (   0.9136200   0.4137320   0.9143790  )
       192        Sb     tau( 192) = (   0.9132400   0.5850140   0.7506380  )
       193        Ga     tau( 193) = (   0.6665290   0.6664400   0.0068310  )
       194        Ga     tau( 194) = (   0.6732020   0.8278240   0.1620870  )
       195        Ga     tau( 195) = (   0.8297080   0.6621120   0.1622260  )
       196        Ga     tau( 196) = (   0.8270460   0.8268260   0.0046210  )
       197        As     tau( 197) = (   0.7499380   0.7446130   0.0842530  )
       198        Sb     tau( 198) = (   0.7510630   0.9161580   0.2491510  )
       199        Sb     tau( 199) = (   0.9152730   0.7487010   0.2483260  )
       200        Sb     tau( 200) = (   0.9150080   0.9151880   0.0835980  )
       201        Ga     tau( 201) = (   0.6741420   0.6589540   0.3278390  )
       202        Ga     tau( 202) = (   0.6692130   0.8316450   0.5020400  )
       203        Ga     tau( 203) = (   0.8333010   0.6647920   0.5019610  )
       204        Ga     tau( 204) = (   0.8347550   0.8338310   0.3353330  )
       205        Sb     tau( 205) = (   0.7508450   0.7469640   0.4155880  )
       206        Sb     tau( 206) = (   0.7522490   0.9177900   0.5867880  )
       207        Sb     tau( 207) = (   0.9168050   0.7516780   0.5855370  )
       208        Sb     tau( 208) = (   0.9178750   0.9199100   0.4199580  )
       209        Ga     tau( 209) = (   0.6666520   0.6671140   0.6762780  )
       210        Ga     tau( 210) = (   0.6664380   0.8320860   0.8260500  )
       211        Ga     tau( 211) = (   0.8257720   0.6724540   0.8303170  )
       212        Ga     tau( 212) = (   0.8321480   0.8317970   0.6744790  )
       213        As     tau( 213) = (   0.7478050   0.7516250   0.7501150  )
       214        Sb     tau( 214) = (   0.7498520   0.9152190   0.9141880  )
       215        Sb     tau( 215) = (   0.9141280   0.7497330   0.9162220  )
       216        As     tau( 216) = (   0.9162880   0.9152390   0.7460130  )

     number of k points=     8
                       cart. coord. in units 2pi/alat
        k(    1) = (   0.0000000   0.0000000   0.0000000), wk =   0.2500000
        k(    2) = (   0.0000000   0.0000000  -0.5000000), wk =   0.2500000
        k(    3) = (   0.0000000  -0.5000000  -0.5000000), wk =   0.2500000
        k(    4) = (  -0.5000000  -0.5000000  -0.5000000), wk =   0.2500000
        k(    5) = (  -0.5000000   0.0000000   0.0000000), wk =   0.2500000
        k(    6) = (   0.0000000  -0.5000000   0.0000000), wk =   0.2500000
        k(    7) = (  -0.5000000   0.0000000   0.5000000), wk =   0.2500000
        k(    8) = (  -0.5000000   0.5000000   0.0000000), wk =   0.2500000

     Dense  grid:  6997649 G-vectors     FFT dimensions: ( 240, 240, 240)

     Estimated max dynamical RAM per process >       2.70 GB

     Estimated total dynamical RAM >    1715.46 GB

     Initial potential from superposition of free atoms

     starting charge    3023.6593, renormalised to    3024.0000

     STARTING HUBBARD OCCUPATIONS:

     =================== HUBBARD OCCUPATIONS ===================
     ------------------------ ATOM    1 ------------------------
     Tr[ns(  1)] =   1.00000
     eigenvalues:
       0.167  0.167  0.167
     eigenvectors (columns):
       1.000  0.000  0.000
       0.000  1.000  0.000
       0.000  0.000  1.000
     occupation matrix ns (before diag.):
       0.167  0.000  0.000
       0.000  0.167  0.000
       0.000  0.000  0.167
     ------------------------ ATOM    2 ------------------------
     Tr[ns(  2)] =   1.00000
     eigenvalues:
       0.167  0.167  0.167
     eigenvectors (columns):
       1.000  0.000  0.000
       0.000  1.000  0.000
       0.000  0.000  1.000
     occupation matrix ns (before diag.):
       0.167  0.000  0.000
       0.000  0.167  0.000
       0.000  0.000  0.167
     ------------------------ ATOM    3 ------------------------
     Tr[ns(  3)] =   1.00000
     eigenvalues:
       0.167  0.167  0.167
     eigenvectors (columns):
       1.000  0.000  0.000
       0.000  1.000  0.000
       0.000  0.000  1.000
     occupation matrix ns (before diag.):
       0.167  0.000  0.000
       0.000  0.167  0.000
       0.000  0.000  0.167
     ------------------------ ATOM    4 ------------------------
     Tr[ns(  4)] =   1.00000
     eigenvalues:
       0.167  0.167  0.167
     eigenvectors (columns):
       1.000  0.000  0.000
       0.000  1.000  0.000
       0.000  0.000  1.000
     occupation matrix ns (before diag.):
       0.167  0.000  0.000
       0.000  0.167  0.000
       0.000  0.000  0.167
     ------------------------ ATOM    5 ------------------------
     Tr[ns(  5)] =   3.00000
     eigenvalues:
       0.500  0.500  0.500
     eigenvectors (columns):
       1.000  0.000  0.000
       0.000  1.000  0.000
       0.000  0.000  1.000
     occupation matrix ns (before diag.):
       0.500  0.000  0.000
       0.000  0.500  0.000
       0.000  0.000  0.500
     ------------------------ ATOM    6 ------------------------
     Tr[ns(  6)] =   3.00000
     eigenvalues:
       0.500  0.500  0.500
     eigenvectors (columns):
       1.000  0.000  0.000
       0.000  1.000  0.000
       0.000  0.000  1.000
     occupation matrix ns (before diag.):
       0.500  0.000  0.000
       0.000  0.500  0.000
       0.000  0.000  0.500
     ------------------------ ATOM    7 ------------------------
     Tr[ns(  7)] =   3.00000
     eigenvalues:
       0.500  0.500  0.500
     eigenvectors (columns):
       1.000  0.000  0.000
       0.000  1.000  0.000
       0.000  0.000  1.000
     occupation matrix ns (before diag.):
       0.500  0.000  0.000
       0.000  0.500  0.000
       0.000  0.000  0.500
     ------------------------ ATOM    8 ------------------------
     Tr[ns(  8)] =   3.00000
     eigenvalues:
       0.500  0.500  0.500
     eigenvectors (columns):
       1.000  0.000  0.000
       0.000  1.000  0.000
       0.000  0.000  1.000
     occupation matrix ns (before diag.):
       0.500  0.000  0.000
       0.000  0.500  0.000
       0.000  0.000  0.500
     ------------------------ ATOM    9 ------------------------
     Tr[ns(  9)] =   1.00000
     eigenvalues:
       0.167  0.167  0.167
     eigenvectors (columns):
       1.000  0.000  0.000
       0.000  1.000  0.000
       0.000  0.000  1.000
     occupation matrix ns (before diag.):
       0.167  0.000  0.000
       0.000  0.167  0.000
       0.000  0.000  0.167
     ------------------------ ATOM   10 ------------------------
     Tr[ns( 10)] =   1.00000
     eigenvalues:
       0.167  0.167  0.167
     eigenvectors (columns):
       1.000  0.000  0.000
       0.000  1.000  0.000
       0.000  0.000  1.000
     occupation matrix ns (before diag.):
       0.167  0.000  0.000
       0.000  0.167  0.000
       0.000  0.000  0.167
     ------------------------ ATOM   11 ------------------------
     Tr[ns( 11)] =   1.00000
     eigenvalues:
       0.167  0.167  0.167
     eigenvectors (columns):
       1.000  0.000  0.000
       0.000  1.000  0.000
       0.000  0.000  1.000
     occupation matrix ns (before diag.):
       0.167  0.000  0.000
       0.000  0.167  0.000
       0.000  0.000  0.167
     ------------------------ ATOM   12 ------------------------
     Tr[ns( 12)] =   1.00000
     eigenvalues:
       0.167  0.167  0.167
     eigenvectors (columns):
       1.000  0.000  0.000
       0.000  1.000  0.000
       0.000  0.000  1.000
     occupation matrix ns (before diag.):
       0.167  0.000  0.000
       0.000  0.167  0.000
       0.000  0.000  0.167
     ------------------------ ATOM   13 ------------------------
     Tr[ns( 13)] =   3.00000
     eigenvalues:
       0.500  0.500  0.500
     eigenvectors (columns):
       1.000  0.000  0.000
       0.000  1.000  0.000
       0.000  0.000  1.000
     occupation matrix ns (before diag.):
       0.500  0.000  0.000
       0.000  0.500  0.000
       0.000  0.000  0.500
     ------------------------ ATOM   14 ------------------------
     Tr[ns( 14)] =   3.00000
     eigenvalues:
       0.500  0.500  0.500
     eigenvectors (columns):
       1.000  0.000  0.000
       0.000  1.000  0.000
       0.000  0.000  1.000
     occupation matrix ns (before diag.):
       0.500  0.000  0.000
       0.000  0.500  0.000
       0.000  0.000  0.500
     ------------------------ ATOM   15 ------------------------
     Tr[ns( 15)] =   3.00000
     eigenvalues:
       0.500  0.500  0.500
     eigenvectors (columns):
       1.000  0.000  0.000
       0.000  1.000  0.000
       0.000  0.000  1.000
     occupation matrix ns (before diag.):
       0.500  0.000  0.000
       0.000  0.500  0.000
       0.000  0.000  0.500
     ------------------------ ATOM   16 ------------------------
     Tr[ns( 16)] =   3.00000
     eigenvalues:
       0.500  0.500  0.500
     eigenvectors (columns):
       1.000  0.000  0.000
       0.000  1.000  0.000
       0.000  0.000  1.000
     occupation matrix ns (before diag.):
       0.500  0.000  0.000
       0.000  0.500  0.000
       0.000  0.000  0.500
     ------------------------ ATOM   17 ------------------------
     Tr[ns( 17)] =   1.00000
     eigenvalues:
       0.167  0.167  0.167
     eigenvectors (columns):
       1.000  0.000  0.000
       0.000  1.000  0.000
       0.000  0.000  1.000
     occupation matrix ns (before diag.):
       0.167  0.000  0.000
       0.000  0.167  0.000
       0.000  0.000  0.167
     ------------------------ ATOM   18 ------------------------
     Tr[ns( 18)] =   1.00000
     eigenvalues:
       0.167  0.167  0.167
     eigenvectors (columns):
       1.000  0.000  0.000
       0.000  1.000  0.000
       0.000  0.000  1.000
     occupation matrix ns (before diag.):
       0.167  0.000  0.000
       0.000  0.167  0.000
       0.000  0.000  0.167
     ------------------------ ATOM   19 ------------------------
     Tr[ns( 19)] =   1.00000
     eigenvalues:
       0.167  0.167  0.167
     eigenvectors (columns):
       1.000  0.000  0.000
       0.000  1.000  0.000
       0.000  0.000  1.000
     occupation matrix ns (before diag.):
       0.167  0.000  0.000
       0.000  0.167  0.000
       0.000  0.000  0.167
     ------------------------ ATOM   20 ------------------------
     Tr[ns( 20)] =   1.00000
     eigenvalues:
       0.167  0.167  0.167
     eigenvectors (columns):
       1.000  0.000  0.000
       0.000  1.000  0.000
       0.000  0.000  1.000
     occupation matrix ns (before diag.):
       0.167  0.000  0.000
       0.000  0.167  0.000
       0.000  0.000  0.167
     ------------------------ ATOM   21 ------------------------
     Tr[ns( 21)] =   3.00000
     eigenvalues:
       0.500  0.500  0.500
     eigenvectors (columns):
       1.000  0.000  0.000
       0.000  1.000  0.000
       0.000  0.000  1.000
     occupation matrix ns (before diag.):
       0.500  0.000  0.000
       0.000  0.500  0.000
       0.000  0.000  0.500
     ------------------------ ATOM   22 ------------------------
     Tr[ns( 22)] =   3.00000
     eigenvalues:
       0.500  0.500  0.500
     eigenvectors (columns):
       1.000  0.000  0.000
       0.000  1.000  0.000
       0.000  0.000  1.000
     occupation matrix ns (before diag.):
       0.500  0.000  0.000
       0.000  0.500  0.000
       0.000  0.000  0.500
     ------------------------ ATOM   23 ------------------------
     Tr[ns( 23)] =   3.00000
     eigenvalues:
       0.500  0.500  0.500
     eigenvectors (columns):
       1.000  0.000  0.000
       0.000  1.000  0.000
       0.000  0.000  1.000
     occupation matrix ns (before diag.):
       0.500  0.000  0.000
       0.000  0.500  0.000
       0.000  0.000  0.500
     ------------------------ ATOM   24 ------------------------
     Tr[ns( 24)] =   3.00000
     eigenvalues:
       0.500  0.500  0.500
     eigenvectors (columns):
       1.000  0.000  0.000
       0.000  1.000  0.000
       0.000  0.000  1.000
     occupation matrix ns (before diag.):
       0.500  0.000  0.000
       0.000  0.500  0.000
       0.000  0.000  0.500
     ------------------------ ATOM   25 ------------------------
     Tr[ns( 25)] =   1.00000
     eigenvalues:
       0.167  0.167  0.167
     eigenvectors (columns):
       1.000  0.000  0.000
       0.000  1.000  0.000
       0.000  0.000  1.000
     occupation matrix ns (before diag.):
       0.167  0.000  0.000
       0.000  0.167  0.000
       0.000  0.000  0.167
     ------------------------ ATOM   26 ------------------------
     Tr[ns( 26)] =   1.00000
     eigenvalues:
       0.167  0.167  0.167
     eigenvectors (columns):
       1.000  0.000  0.000
       0.000  1.000  0.000
       0.000  0.000  1.000
     occupation matrix ns (before diag.):
       0.167  0.000  0.000
       0.000  0.167  0.000
       0.000  0.000  0.167
     ------------------------ ATOM   27 ------------------------
     Tr[ns( 27)] =   1.00000
     eigenvalues:
       0.167  0.167  0.167
     eigenvectors (columns):
       1.000  0.000  0.000
       0.000  1.000  0.000
       0.000  0.000  1.000
     occupation matrix ns (before diag.):
       0.167  0.000  0.000
       0.000  0.167  0.000
       0.000  0.000  0.167
     ------------------------ ATOM   28 ------------------------
     Tr[ns( 28)] =   1.00000
     eigenvalues:
       0.167  0.167  0.167
     eigenvectors (columns):
       1.000  0.000  0.000
       0.000  1.000  0.000
       0.000  0.000  1.000
     occupation matrix ns (before diag.):
       0.167  0.000  0.000
       0.000  0.167  0.000
       0.000  0.000  0.167
     ------------------------ ATOM   29 ------------------------
     Tr[ns( 29)] =   3.00000
     eigenvalues:
       0.500  0.500  0.500
     eigenvectors (columns):
       1.000  0.000  0.000
       0.000  1.000  0.000
       0.000  0.000  1.000
     occupation matrix ns (before diag.):
       0.500  0.000  0.000
       0.000  0.500  0.000
       0.000  0.000  0.500
     ------------------------ ATOM   30 ------------------------
     Tr[ns( 30)] =   3.00000
     eigenvalues:
       0.500  0.500  0.500
     eigenvectors (columns):
       1.000  0.000  0.000
       0.000  1.000  0.000
       0.000  0.000  1.000
     occupation matrix ns (before diag.):
       0.500  0.000  0.000
       0.000  0.500  0.000
       0.000  0.000  0.500
     ------------------------ ATOM   31 ------------------------
     Tr[ns( 31)] =   3.00000
     eigenvalues:
       0.500  0.500  0.500
     eigenvectors (columns):
       1.000  0.000  0.000
       0.000  1.000  0.000
       0.000  0.000  1.000
     occupation matrix ns (before diag.):
       0.500  0.000  0.000
       0.000  0.500  0.000
       0.000  0.000  0.500
     ------------------------ ATOM   32 ------------------------
     Tr[ns( 32)] =   3.00000
     eigenvalues:
       0.500  0.500  0.500
     eigenvectors (columns):
       1.000  0.000  0.000
       0.000  1.000  0.000
       0.000  0.000  1.000
     occupation matrix ns (before diag.):
       0.500  0.000  0.000
       0.000  0.500  0.000
       0.000  0.000  0.500
     ------------------------ ATOM   33 ------------------------
     Tr[ns( 33)] =   1.00000
     eigenvalues:
       0.167  0.167  0.167
     eigenvectors (columns):
       1.000  0.000  0.000
       0.000  1.000  0.000
       0.000  0.000  1.000
     occupation matrix ns (before diag.):
       0.167  0.000  0.000
       0.000  0.167  0.000
       0.000  0.000  0.167
     ------------------------ ATOM   34 ------------------------
     Tr[ns( 34)] =   1.00000
     eigenvalues:
       0.167  0.167  0.167
     eigenvectors (columns):
       1.000  0.000  0.000
       0.000  1.000  0.000
       0.000  0.000  1.000
     occupation matrix ns (before diag.):
       0.167  0.000  0.000
       0.000  0.167  0.000
       0.000  0.000  0.167
     ------------------------ ATOM   35 ------------------------
     Tr[ns( 35)] =   1.00000
     eigenvalues:
       0.167  0.167  0.167
     eigenvectors (columns):
       1.000  0.000  0.000
       0.000  1.000  0.000
       0.000  0.000  1.000
     occupation matrix ns (before diag.):
       0.167  0.000  0.000
       0.000  0.167  0.000
       0.000  0.000  0.167
     ------------------------ ATOM   36 ------------------------
     Tr[ns( 36)] =   1.00000
     eigenvalues:
       0.167  0.167  0.167
     eigenvectors (columns):
       1.000  0.000  0.000
       0.000  1.000  0.000
       0.000  0.000  1.000
     occupation matrix ns (before diag.):
       0.167  0.000  0.000
       0.000  0.167  0.000
       0.000  0.000  0.167
     ------------------------ ATOM   37 ------------------------
     Tr[ns( 37)] =   3.00000
     eigenvalues:
       0.500  0.500  0.500
     eigenvectors (columns):
       1.000  0.000  0.000
       0.000  1.000  0.000
       0.000  0.000  1.000
     occupation matrix ns (before diag.):
       0.500  0.000  0.000
       0.000  0.500  0.000
       0.000  0.000  0.500
     ------------------------ ATOM   38 ------------------------
     Tr[ns( 38)] =   3.00000
     eigenvalues:
       0.500  0.500  0.500
     eigenvectors (columns):
       1.000  0.000  0.000
       0.000  1.000  0.000
       0.000  0.000  1.000
     occupation matrix ns (before diag.):
       0.500  0.000  0.000
       0.000  0.500  0.000
       0.000  0.000  0.500
     ------------------------ ATOM   39 ------------------------
     Tr[ns( 39)] =   3.00000
     eigenvalues:
       0.500  0.500  0.500
     eigenvectors (columns):
       1.000  0.000  0.000
       0.000  1.000  0.000
       0.000  0.000  1.000
     occupation matrix ns (before diag.):
       0.500  0.000  0.000
       0.000  0.500  0.000
       0.000  0.000  0.500
     ------------------------ ATOM   40 ------------------------
     Tr[ns( 40)] =   3.00000
     eigenvalues:
       0.500  0.500  0.500
     eigenvectors (columns):
       1.000  0.000  0.000
       0.000  1.000  0.000
       0.000  0.000  1.000
     occupation matrix ns (before diag.):
       0.500  0.000  0.000
       0.000  0.500  0.000
       0.000  0.000  0.500
     ------------------------ ATOM   41 ------------------------
     Tr[ns( 41)] =   1.00000
     eigenvalues:
       0.167  0.167  0.167
     eigenvectors (columns):
       1.000  0.000  0.000
       0.000  1.000  0.000
       0.000  0.000  1.000
     occupation matrix ns (before diag.):
       0.167  0.000  0.000
       0.000  0.167  0.000
       0.000  0.000  0.167
     ------------------------ ATOM   42 ------------------------
     Tr[ns( 42)] =   1.00000
     eigenvalues:
       0.167  0.167  0.167
     eigenvectors (columns):
       1.000  0.000  0.000
       0.000  1.000  0.000
       0.000  0.000  1.000
     occupation matrix ns (before diag.):
       0.167  0.000  0.000
       0.000  0.167  0.000
       0.000  0.000  0.167
     ------------------------ ATOM   43 ------------------------
     Tr[ns( 43)] =   1.00000
     eigenvalues:
       0.167  0.167  0.167
     eigenvectors (columns):
       1.000  0.000  0.000
       0.000  1.000  0.000
       0.000  0.000  1.000
     occupation matrix ns (before diag.):
       0.167  0.000  0.000
       0.000  0.167  0.000
       0.000  0.000  0.167
     ------------------------ ATOM   44 ------------------------
     Tr[ns( 44)] =   1.00000
     eigenvalues:
       0.167  0.167  0.167
     eigenvectors (columns):
       1.000  0.000  0.000
       0.000  1.000  0.000
       0.000  0.000  1.000
     occupation matrix ns (before diag.):
       0.167  0.000  0.000
       0.000  0.167  0.000
       0.000  0.000  0.167
     ------------------------ ATOM   45 ------------------------
     Tr[ns( 45)] =   3.00000
     eigenvalues:
       0.500  0.500  0.500
     eigenvectors (columns):
       1.000  0.000  0.000
       0.000  1.000  0.000
       0.000  0.000  1.000
     occupation matrix ns (before diag.):
       0.500  0.000  0.000
       0.000  0.500  0.000
       0.000  0.000  0.500
     ------------------------ ATOM   46 ------------------------
     Tr[ns( 46)] =   3.00000
     eigenvalues:
       0.500  0.500  0.500
     eigenvectors (columns):
       1.000  0.000  0.000
       0.000  1.000  0.000
       0.000  0.000  1.000
     occupation matrix ns (before diag.):
       0.500  0.000  0.000
       0.000  0.500  0.000
       0.000  0.000  0.500
     ------------------------ ATOM   47 ------------------------
     Tr[ns( 47)] =   3.00000
     eigenvalues:
       0.500  0.500  0.500
     eigenvectors (columns):
       1.000  0.000  0.000
       0.000  1.000  0.000
       0.000  0.000  1.000
     occupation matrix ns (before diag.):
       0.500  0.000  0.000
       0.000  0.500  0.000
       0.000  0.000  0.500
     ------------------------ ATOM   48 ------------------------
     Tr[ns( 48)] =   3.00000
     eigenvalues:
       0.500  0.500  0.500
     eigenvectors (columns):
       1.000  0.000  0.000
       0.000  1.000  0.000
       0.000  0.000  1.000
     occupation matrix ns (before diag.):
       0.500  0.000  0.000
       0.000  0.500  0.000
       0.000  0.000  0.500
     ------------------------ ATOM   49 ------------------------
     Tr[ns( 49)] =   1.00000
     eigenvalues:
       0.167  0.167  0.167
     eigenvectors (columns):
       1.000  0.000  0.000
       0.000  1.000  0.000
       0.000  0.000  1.000
     occupation matrix ns (before diag.):
       0.167  0.000  0.000
       0.000  0.167  0.000
       0.000  0.000  0.167
     ------------------------ ATOM   50 ------------------------
     Tr[ns( 50)] =   1.00000
     eigenvalues:
       0.167  0.167  0.167
     eigenvectors (columns):
       1.000  0.000  0.000
       0.000  1.000  0.000
       0.000  0.000  1.000
     occupation matrix ns (before diag.):
       0.167  0.000  0.000
       0.000  0.167  0.000
       0.000  0.000  0.167
     ------------------------ ATOM   51 ------------------------
     Tr[ns( 51)] =   1.00000
     eigenvalues:
       0.167  0.167  0.167
     eigenvectors (columns):
       1.000  0.000  0.000
       0.000  1.000  0.000
       0.000  0.000  1.000
     occupation matrix ns (before diag.):
       0.167  0.000  0.000
       0.000  0.167  0.000
       0.000  0.000  0.167
     ------------------------ ATOM   52 ------------------------
     Tr[ns( 52)] =   1.00000
     eigenvalues:
       0.167  0.167  0.167
     eigenvectors (columns):
       1.000  0.000  0.000
       0.000  1.000  0.000
       0.000  0.000  1.000
     occupation matrix ns (before diag.):
       0.167  0.000  0.000
       0.000  0.167  0.000
       0.000  0.000  0.167
     ------------------------ ATOM   53 ------------------------
     Tr[ns( 53)] =   3.00000
     eigenvalues:
       0.500  0.500  0.500
     eigenvectors (columns):
       1.000  0.000  0.000
       0.000  1.000  0.000
       0.000  0.000  1.000
     occupation matrix ns (before diag.):
       0.500  0.000  0.000
       0.000  0.500  0.000
       0.000  0.000  0.500
     ------------------------ ATOM   54 ------------------------
     Tr[ns( 54)] =   3.00000
     eigenvalues:
       0.500  0.500  0.500
     eigenvectors (columns):
       1.000  0.000  0.000
       0.000  1.000  0.000
       0.000  0.000  1.000
     occupation matrix ns (before diag.):
       0.500  0.000  0.000
       0.000  0.500  0.000
       0.000  0.000  0.500
     ------------------------ ATOM   55 ------------------------
     Tr[ns( 55)] =   3.00000
     eigenvalues:
       0.500  0.500  0.500
     eigenvectors (columns):
       1.000  0.000  0.000
       0.000  1.000  0.000
       0.000  0.000  1.000
     occupation matrix ns (before diag.):
       0.500  0.000  0.000
       0.000  0.500  0.000
       0.000  0.000  0.500
     ------------------------ ATOM   56 ------------------------
     Tr[ns( 56)] =   3.00000
     eigenvalues:
       0.500  0.500  0.500
     eigenvectors (columns):
       1.000  0.000  0.000
       0.000  1.000  0.000
       0.000  0.000  1.000
     occupation matrix ns (before diag.):
       0.500  0.000  0.000
       0.000  0.500  0.000
       0.000  0.000  0.500
     ------------------------ ATOM   57 ------------------------
     Tr[ns( 57)] =   1.00000
     eigenvalues:
       0.167  0.167  0.167
     eigenvectors (columns):
       1.000  0.000  0.000
       0.000  1.000  0.000
       0.000  0.000  1.000
     occupation matrix ns (before diag.):
       0.167  0.000  0.000
       0.000  0.167  0.000
       0.000  0.000  0.167
     ------------------------ ATOM   58 ------------------------
     Tr[ns( 58)] =   1.00000
     eigenvalues:
       0.167  0.167  0.167
     eigenvectors (columns):
       1.000  0.000  0.000
       0.000  1.000  0.000
       0.000  0.000  1.000
     occupation matrix ns (before diag.):
       0.167  0.000  0.000
       0.000  0.167  0.000
       0.000  0.000  0.167
     ------------------------ ATOM   59 ------------------------
     Tr[ns( 59)] =   1.00000
     eigenvalues:
       0.167  0.167  0.167
     eigenvectors (columns):
       1.000  0.000  0.000
       0.000  1.000  0.000
       0.000  0.000  1.000
     occupation matrix ns (before diag.):
       0.167  0.000  0.000
       0.000  0.167  0.000
       0.000  0.000  0.167
     ------------------------ ATOM   60 ------------------------
     Tr[ns( 60)] =   1.00000
     eigenvalues:
       0.167  0.167  0.167
     eigenvectors (columns):
       1.000  0.000  0.000
       0.000  1.000  0.000
       0.000  0.000  1.000
     occupation matrix ns (before diag.):
       0.167  0.000  0.000
       0.000  0.167  0.000
       0.000  0.000  0.167
     ------------------------ ATOM   61 ------------------------
     Tr[ns( 61)] =   3.00000
     eigenvalues:
       0.500  0.500  0.500
     eigenvectors (columns):
       1.000  0.000  0.000
       0.000  1.000  0.000
       0.000  0.000  1.000
     occupation matrix ns (before diag.):
       0.500  0.000  0.000
       0.000  0.500  0.000
       0.000  0.000  0.500
     ------------------------ ATOM   62 ------------------------
     Tr[ns( 62)] =   3.00000
     eigenvalues:
       0.500  0.500  0.500
     eigenvectors (columns):
       1.000  0.000  0.000
       0.000  1.000  0.000
       0.000  0.000  1.000
     occupation matrix ns (before diag.):
       0.500  0.000  0.000
       0.000  0.500  0.000
       0.000  0.000  0.500
     ------------------------ ATOM   63 ------------------------
     Tr[ns( 63)] =   3.00000
     eigenvalues:
       0.500  0.500  0.500
     eigenvectors (columns):
       1.000  0.000  0.000
       0.000  1.000  0.000
       0.000  0.000  1.000
     occupation matrix ns (before diag.):
       0.500  0.000  0.000
       0.000  0.500  0.000
       0.000  0.000  0.500
     ------------------------ ATOM   64 ------------------------
     Tr[ns( 64)] =   3.00000
     eigenvalues:
       0.500  0.500  0.500
     eigenvectors (columns):
       1.000  0.000  0.000
       0.000  1.000  0.000
       0.000  0.000  1.000
     occupation matrix ns (before diag.):
       0.500  0.000  0.000
       0.000  0.500  0.000
       0.000  0.000  0.500
     ------------------------ ATOM   65 ------------------------
     Tr[ns( 65)] =   1.00000
     eigenvalues:
       0.167  0.167  0.167
     eigenvectors (columns):
       1.000  0.000  0.000
       0.000  1.000  0.000
       0.000  0.000  1.000
     occupation matrix ns (before diag.):
       0.167  0.000  0.000
       0.000  0.167  0.000
       0.000  0.000  0.167
     ------------------------ ATOM   66 ------------------------
     Tr[ns( 66)] =   1.00000
     eigenvalues:
       0.167  0.167  0.167
     eigenvectors (columns):
       1.000  0.000  0.000
       0.000  1.000  0.000
       0.000  0.000  1.000
     occupation matrix ns (before diag.):
       0.167  0.000  0.000
       0.000  0.167  0.000
       0.000  0.000  0.167
     ------------------------ ATOM   67 ------------------------
     Tr[ns( 67)] =   1.00000
     eigenvalues:
       0.167  0.167  0.167
     eigenvectors (columns):
       1.000  0.000  0.000
       0.000  1.000  0.000
       0.000  0.000  1.000
     occupation matrix ns (before diag.):
       0.167  0.000  0.000
       0.000  0.167  0.000
       0.000  0.000  0.167
     ------------------------ ATOM   68 ------------------------
     Tr[ns( 68)] =   1.00000
     eigenvalues:
       0.167  0.167  0.167
     eigenvectors (columns):
       1.000  0.000  0.000
       0.000  1.000  0.000
       0.000  0.000  1.000
     occupation matrix ns (before diag.):
       0.167  0.000  0.000
       0.000  0.167  0.000
       0.000  0.000  0.167
     ------------------------ ATOM   69 ------------------------
     Tr[ns( 69)] =   3.00000
     eigenvalues:
       0.500  0.500  0.500
     eigenvectors (columns):
       1.000  0.000  0.000
       0.000  1.000  0.000
       0.000  0.000  1.000
     occupation matrix ns (before diag.):
       0.500  0.000  0.000
       0.000  0.500  0.000
       0.000  0.000  0.500
     ------------------------ ATOM   70 ------------------------
     Tr[ns( 70)] =   3.00000
     eigenvalues:
       0.500  0.500  0.500
     eigenvectors (columns):
       1.000  0.000  0.000
       0.000  1.000  0.000
       0.000  0.000  1.000
     occupation matrix ns (before diag.):
       0.500  0.000  0.000
       0.000  0.500  0.000
       0.000  0.000  0.500
     ------------------------ ATOM   71 ------------------------
     Tr[ns( 71)] =   3.00000
     eigenvalues:
       0.500  0.500  0.500
     eigenvectors (columns):
       1.000  0.000  0.000
       0.000  1.000  0.000
       0.000  0.000  1.000
     occupation matrix ns (before diag.):
       0.500  0.000  0.000
       0.000  0.500  0.000
       0.000  0.000  0.500
     ------------------------ ATOM   72 ------------------------
     Tr[ns( 72)] =   3.00000
     eigenvalues:
       0.500  0.500  0.500
     eigenvectors (columns):
       1.000  0.000  0.000
       0.000  1.000  0.000
       0.000  0.000  1.000
     occupation matrix ns (before diag.):
       0.500  0.000  0.000
       0.000  0.500  0.000
       0.000  0.000  0.500
     ------------------------ ATOM   73 ------------------------
     Tr[ns( 73)] =   1.00000
     eigenvalues:
       0.167  0.167  0.167
     eigenvectors (columns):
       1.000  0.000  0.000
       0.000  1.000  0.000
       0.000  0.000  1.000
     occupation matrix ns (before diag.):
       0.167  0.000  0.000
       0.000  0.167  0.000
       0.000  0.000  0.167
     ------------------------ ATOM   74 ------------------------
     Tr[ns( 74)] =   1.00000
     eigenvalues:
       0.167  0.167  0.167
     eigenvectors (columns):
       1.000  0.000  0.000
       0.000  1.000  0.000
       0.000  0.000  1.000
     occupation matrix ns (before diag.):
       0.167  0.000  0.000
       0.000  0.167  0.000
       0.000  0.000  0.167
     ------------------------ ATOM   75 ------------------------
     Tr[ns( 75)] =   1.00000
     eigenvalues:
       0.167  0.167  0.167
     eigenvectors (columns):
       1.000  0.000  0.000
       0.000  1.000  0.000
       0.000  0.000  1.000
     occupation matrix ns (before diag.):
       0.167  0.000  0.000
       0.000  0.167  0.000
       0.000  0.000  0.167
     ------------------------ ATOM   76 ------------------------
     Tr[ns( 76)] =   1.00000
     eigenvalues:
       0.167  0.167  0.167
     eigenvectors (columns):
       1.000  0.000  0.000
       0.000  1.000  0.000
       0.000  0.000  1.000
     occupation matrix ns (before diag.):
       0.167  0.000  0.000
       0.000  0.167  0.000
       0.000  0.000  0.167
     ------------------------ ATOM   77 ------------------------
     Tr[ns( 77)] =   3.00000
     eigenvalues:
       0.500  0.500  0.500
     eigenvectors (columns):
       1.000  0.000  0.000
       0.000  1.000  0.000
       0.000  0.000  1.000
     occupation matrix ns (before diag.):
       0.500  0.000  0.000
       0.000  0.500  0.000
       0.000  0.000  0.500
     ------------------------ ATOM   78 ------------------------
     Tr[ns( 78)] =   3.00000
     eigenvalues:
       0.500  0.500  0.500
     eigenvectors (columns):
       1.000  0.000  0.000
       0.000  1.000  0.000
       0.000  0.000  1.000
     occupation matrix ns (before diag.):
       0.500  0.000  0.000
       0.000  0.500  0.000
       0.000  0.000  0.500
     ------------------------ ATOM   79 ------------------------
     Tr[ns( 79)] =   3.00000
     eigenvalues:
       0.500  0.500  0.500
     eigenvectors (columns):
       1.000  0.000  0.000
       0.000  1.000  0.000
       0.000  0.000  1.000
     occupation matrix ns (before diag.):
       0.500  0.000  0.000
       0.000  0.500  0.000
       0.000  0.000  0.500
     ------------------------ ATOM   80 ------------------------
     Tr[ns( 80)] =   3.00000
     eigenvalues:
       0.500  0.500  0.500
     eigenvectors (columns):
       1.000  0.000  0.000
       0.000  1.000  0.000
       0.000  0.000  1.000
     occupation matrix ns (before diag.):
       0.500  0.000  0.000
       0.000  0.500  0.000
       0.000  0.000  0.500
     ------------------------ ATOM   81 ------------------------
     Tr[ns( 81)] =   1.00000
     eigenvalues:
       0.167  0.167  0.167
     eigenvectors (columns):
       1.000  0.000  0.000
       0.000  1.000  0.000
       0.000  0.000  1.000
     occupation matrix ns (before diag.):
       0.167  0.000  0.000
       0.000  0.167  0.000
       0.000  0.000  0.167
     ------------------------ ATOM   82 ------------------------
     Tr[ns( 82)] =   1.00000
     eigenvalues:
       0.167  0.167  0.167
     eigenvectors (columns):
       1.000  0.000  0.000
       0.000  1.000  0.000
       0.000  0.000  1.000
     occupation matrix ns (before diag.):
       0.167  0.000  0.000
       0.000  0.167  0.000
       0.000  0.000  0.167
     ------------------------ ATOM   83 ------------------------
     Tr[ns( 83)] =   1.00000
     eigenvalues:
       0.167  0.167  0.167
     eigenvectors (columns):
       1.000  0.000  0.000
       0.000  1.000  0.000
       0.000  0.000  1.000
     occupation matrix ns (before diag.):
       0.167  0.000  0.000
       0.000  0.167  0.000
       0.000  0.000  0.167
     ------------------------ ATOM   84 ------------------------
     Tr[ns( 84)] =   1.00000
     eigenvalues:
       0.167  0.167  0.167
     eigenvectors (columns):
       1.000  0.000  0.000
       0.000  1.000  0.000
       0.000  0.000  1.000
     occupation matrix ns (before diag.):
       0.167  0.000  0.000
       0.000  0.167  0.000
       0.000  0.000  0.167
     ------------------------ ATOM   85 ------------------------
     Tr[ns( 85)] =   3.00000
     eigenvalues:
       0.500  0.500  0.500
     eigenvectors (columns):
       1.000  0.000  0.000
       0.000  1.000  0.000
       0.000  0.000  1.000
     occupation matrix ns (before diag.):
       0.500  0.000  0.000
       0.000  0.500  0.000
       0.000  0.000  0.500
     ------------------------ ATOM   86 ------------------------
     Tr[ns( 86)] =   3.00000
     eigenvalues:
       0.500  0.500  0.500
     eigenvectors (columns):
       1.000  0.000  0.000
       0.000  1.000  0.000
       0.000  0.000  1.000
     occupation matrix ns (before diag.):
       0.500  0.000  0.000
       0.000  0.500  0.000
       0.000  0.000  0.500
     ------------------------ ATOM   87 ------------------------
     Tr[ns( 87)] =   3.00000
     eigenvalues:
       0.500  0.500  0.500
     eigenvectors (columns):
       1.000  0.000  0.000
       0.000  1.000  0.000
       0.000  0.000  1.000
     occupation matrix ns (before diag.):
       0.500  0.000  0.000
       0.000  0.500  0.000
       0.000  0.000  0.500
     ------------------------ ATOM   88 ------------------------
     Tr[ns( 88)] =   3.00000
     eigenvalues:
       0.500  0.500  0.500
     eigenvectors (columns):
       1.000  0.000  0.000
       0.000  1.000  0.000
       0.000  0.000  1.000
     occupation matrix ns (before diag.):
       0.500  0.000  0.000
       0.000  0.500  0.000
       0.000  0.000  0.500
     ------------------------ ATOM   89 ------------------------
     Tr[ns( 89)] =   1.00000
     eigenvalues:
       0.167  0.167  0.167
     eigenvectors (columns):
       1.000  0.000  0.000
       0.000  1.000  0.000
       0.000  0.000  1.000
     occupation matrix ns (before diag.):
       0.167  0.000  0.000
       0.000  0.167  0.000
       0.000  0.000  0.167
     ------------------------ ATOM   90 ------------------------
     Tr[ns( 90)] =   1.00000
     eigenvalues:
       0.167  0.167  0.167
     eigenvectors (columns):
       1.000  0.000  0.000
       0.000  1.000  0.000
       0.000  0.000  1.000
     occupation matrix ns (before diag.):
       0.167  0.000  0.000
       0.000  0.167  0.000
       0.000  0.000  0.167
     ------------------------ ATOM   91 ------------------------
     Tr[ns( 91)] =   1.00000
     eigenvalues:
       0.167  0.167  0.167
     eigenvectors (columns):
       1.000  0.000  0.000
       0.000  1.000  0.000
       0.000  0.000  1.000
     occupation matrix ns (before diag.):
       0.167  0.000  0.000
       0.000  0.167  0.000
       0.000  0.000  0.167
     ------------------------ ATOM   92 ------------------------
     Tr[ns( 92)] =   1.00000
     eigenvalues:
       0.167  0.167  0.167
     eigenvectors (columns):
       1.000  0.000  0.000
       0.000  1.000  0.000
       0.000  0.000  1.000
     occupation matrix ns (before diag.):
       0.167  0.000  0.000
       0.000  0.167  0.000
       0.000  0.000  0.167
     ------------------------ ATOM   93 ------------------------
     Tr[ns( 93)] =   3.00000
     eigenvalues:
       0.500  0.500  0.500
     eigenvectors (columns):
       1.000  0.000  0.000
       0.000  1.000  0.000
       0.000  0.000  1.000
     occupation matrix ns (before diag.):
       0.500  0.000  0.000
       0.000  0.500  0.000
       0.000  0.000  0.500
     ------------------------ ATOM   94 ------------------------
     Tr[ns( 94)] =   3.00000
     eigenvalues:
       0.500  0.500  0.500
     eigenvectors (columns):
       1.000  0.000  0.000
       0.000  1.000  0.000
       0.000  0.000  1.000
     occupation matrix ns (before diag.):
       0.500  0.000  0.000
       0.000  0.500  0.000
       0.000  0.000  0.500
     ------------------------ ATOM   95 ------------------------
     Tr[ns( 95)] =   3.00000
     eigenvalues:
       0.500  0.500  0.500
     eigenvectors (columns):
       1.000  0.000  0.000
       0.000  1.000  0.000
       0.000  0.000  1.000
     occupation matrix ns (before diag.):
       0.500  0.000  0.000
       0.000  0.500  0.000
       0.000  0.000  0.500
     ------------------------ ATOM   96 ------------------------
     Tr[ns( 96)] =   3.00000
     eigenvalues:
       0.500  0.500  0.500
     eigenvectors (columns):
       1.000  0.000  0.000
       0.000  1.000  0.000
       0.000  0.000  1.000
     occupation matrix ns (before diag.):
       0.500  0.000  0.000
       0.000  0.500  0.000
       0.000  0.000  0.500
     ------------------------ ATOM   97 ------------------------
     Tr[ns( 97)] =   1.00000
     eigenvalues:
       0.167  0.167  0.167
     eigenvectors (columns):
       1.000  0.000  0.000
       0.000  1.000  0.000
       0.000  0.000  1.000
     occupation matrix ns (before diag.):
       0.167  0.000  0.000
       0.000  0.167  0.000
       0.000  0.000  0.167
     ------------------------ ATOM   98 ------------------------
     Tr[ns( 98)] =   1.00000
     eigenvalues:
       0.167  0.167  0.167
     eigenvectors (columns):
       1.000  0.000  0.000
       0.000  1.000  0.000
       0.000  0.000  1.000
     occupation matrix ns (before diag.):
       0.167  0.000  0.000
       0.000  0.167  0.000
       0.000  0.000  0.167
     ------------------------ ATOM   99 ------------------------
     Tr[ns( 99)] =   1.00000
     eigenvalues:
       0.167  0.167  0.167
     eigenvectors (columns):
       1.000  0.000  0.000
       0.000  1.000  0.000
       0.000  0.000  1.000
     occupation matrix ns (before diag.):
       0.167  0.000  0.000
       0.000  0.167  0.000
       0.000  0.000  0.167
     ------------------------ ATOM  100 ------------------------
     Tr[ns(100)] =   1.00000
     eigenvalues:
       0.167  0.167  0.167
     eigenvectors (columns):
       1.000  0.000  0.000
       0.000  1.000  0.000
       0.000  0.000  1.000
     occupation matrix ns (before diag.):
       0.167  0.000  0.000
       0.000  0.167  0.000
       0.000  0.000  0.167
     ------------------------ ATOM  101 ------------------------
     Tr[ns(101)] =   3.00000
     eigenvalues:
       0.500  0.500  0.500
     eigenvectors (columns):
       1.000  0.000  0.000
       0.000  1.000  0.000
       0.000  0.000  1.000
     occupation matrix ns (before diag.):
       0.500  0.000  0.000
       0.000  0.500  0.000
       0.000  0.000  0.500
     ------------------------ ATOM  102 ------------------------
     Tr[ns(102)] =   3.00000
     eigenvalues:
       0.500  0.500  0.500
     eigenvectors (columns):
       1.000  0.000  0.000
       0.000  1.000  0.000
       0.000  0.000  1.000
     occupation matrix ns (before diag.):
       0.500  0.000  0.000
       0.000  0.500  0.000
       0.000  0.000  0.500
     ------------------------ ATOM  103 ------------------------
     Tr[ns(103)] =   3.00000
     eigenvalues:
       0.500  0.500  0.500
     eigenvectors (columns):
       1.000  0.000  0.000
       0.000  1.000  0.000
       0.000  0.000  1.000
     occupation matrix ns (before diag.):
       0.500  0.000  0.000
       0.000  0.500  0.000
       0.000  0.000  0.500
     ------------------------ ATOM  104 ------------------------
     Tr[ns(104)] =   3.00000
     eigenvalues:
       0.500  0.500  0.500
     eigenvectors (columns):
       1.000  0.000  0.000
       0.000  1.000  0.000
       0.000  0.000  1.000
     occupation matrix ns (before diag.):
       0.500  0.000  0.000
       0.000  0.500  0.000
       0.000  0.000  0.500
     ------------------------ ATOM  105 ------------------------
     Tr[ns(105)] =   1.00000
     eigenvalues:
       0.167  0.167  0.167
     eigenvectors (columns):
       1.000  0.000  0.000
       0.000  1.000  0.000
       0.000  0.000  1.000
     occupation matrix ns (before diag.):
       0.167  0.000  0.000
       0.000  0.167  0.000
       0.000  0.000  0.167
     ------------------------ ATOM  106 ------------------------
     Tr[ns(106)] =   1.00000
     eigenvalues:
       0.167  0.167  0.167
     eigenvectors (columns):
       1.000  0.000  0.000
       0.000  1.000  0.000
       0.000  0.000  1.000
     occupation matrix ns (before diag.):
       0.167  0.000  0.000
       0.000  0.167  0.000
       0.000  0.000  0.167
     ------------------------ ATOM  107 ------------------------
     Tr[ns(107)] =   1.00000
     eigenvalues:
       0.167  0.167  0.167
     eigenvectors (columns):
       1.000  0.000  0.000
       0.000  1.000  0.000
       0.000  0.000  1.000
     occupation matrix ns (before diag.):
       0.167  0.000  0.000
       0.000  0.167  0.000
       0.000  0.000  0.167
     ------------------------ ATOM  108 ------------------------
     Tr[ns(108)] =   1.00000
     eigenvalues:
       0.167  0.167  0.167
     eigenvectors (columns):
       1.000  0.000  0.000
       0.000  1.000  0.000
       0.000  0.000  1.000
     occupation matrix ns (before diag.):
       0.167  0.000  0.000
       0.000  0.167  0.000
       0.000  0.000  0.167
     ------------------------ ATOM  109 ------------------------
     Tr[ns(109)] =   3.00000
     eigenvalues:
       0.500  0.500  0.500
     eigenvectors (columns):
       1.000  0.000  0.000
       0.000  1.000  0.000
       0.000  0.000  1.000
     occupation matrix ns (before diag.):
       0.500  0.000  0.000
       0.000  0.500  0.000
       0.000  0.000  0.500
     ------------------------ ATOM  110 ------------------------
     Tr[ns(110)] =   3.00000
     eigenvalues:
       0.500  0.500  0.500
     eigenvectors (columns):
       1.000  0.000  0.000
       0.000  1.000  0.000
       0.000  0.000  1.000
     occupation matrix ns (before diag.):
       0.500  0.000  0.000
       0.000  0.500  0.000
       0.000  0.000  0.500
     ------------------------ ATOM  111 ------------------------
     Tr[ns(111)] =   3.00000
     eigenvalues:
       0.500  0.500  0.500
     eigenvectors (columns):
       1.000  0.000  0.000
       0.000  1.000  0.000
       0.000  0.000  1.000
     occupation matrix ns (before diag.):
       0.500  0.000  0.000
       0.000  0.500  0.000
       0.000  0.000  0.500
     ------------------------ ATOM  112 ------------------------
     Tr[ns(112)] =   3.00000
     eigenvalues:
       0.500  0.500  0.500
     eigenvectors (columns):
       1.000  0.000  0.000
       0.000  1.000  0.000
       0.000  0.000  1.000
     occupation matrix ns (before diag.):
       0.500  0.000  0.000
       0.000  0.500  0.000
       0.000  0.000  0.500
     ------------------------ ATOM  113 ------------------------
     Tr[ns(113)] =   1.00000
     eigenvalues:
       0.167  0.167  0.167
     eigenvectors (columns):
       1.000  0.000  0.000
       0.000  1.000  0.000
       0.000  0.000  1.000
     occupation matrix ns (before diag.):
       0.167  0.000  0.000
       0.000  0.167  0.000
       0.000  0.000  0.167
     ------------------------ ATOM  114 ------------------------
     Tr[ns(114)] =   1.00000
     eigenvalues:
       0.167  0.167  0.167
     eigenvectors (columns):
       1.000  0.000  0.000
       0.000  1.000  0.000
       0.000  0.000  1.000
     occupation matrix ns (before diag.):
       0.167  0.000  0.000
       0.000  0.167  0.000
       0.000  0.000  0.167
     ------------------------ ATOM  115 ------------------------
     Tr[ns(115)] =   1.00000
     eigenvalues:
       0.167  0.167  0.167
     eigenvectors (columns):
       1.000  0.000  0.000
       0.000  1.000  0.000
       0.000  0.000  1.000
     occupation matrix ns (before diag.):
       0.167  0.000  0.000
       0.000  0.167  0.000
       0.000  0.000  0.167
     ------------------------ ATOM  116 ------------------------
     Tr[ns(116)] =   1.00000
     eigenvalues:
       0.167  0.167  0.167
     eigenvectors (columns):
       1.000  0.000  0.000
       0.000  1.000  0.000
       0.000  0.000  1.000
     occupation matrix ns (before diag.):
       0.167  0.000  0.000
       0.000  0.167  0.000
       0.000  0.000  0.167
     ------------------------ ATOM  117 ------------------------
     Tr[ns(117)] =   3.00000
     eigenvalues:
       0.500  0.500  0.500
     eigenvectors (columns):
       1.000  0.000  0.000
       0.000  1.000  0.000
       0.000  0.000  1.000
     occupation matrix ns (before diag.):
       0.500  0.000  0.000
       0.000  0.500  0.000
       0.000  0.000  0.500
     ------------------------ ATOM  118 ------------------------
     Tr[ns(118)] =   3.00000
     eigenvalues:
       0.500  0.500  0.500
     eigenvectors (columns):
       1.000  0.000  0.000
       0.000  1.000  0.000
       0.000  0.000  1.000
     occupation matrix ns (before diag.):
       0.500  0.000  0.000
       0.000  0.500  0.000
       0.000  0.000  0.500
     ------------------------ ATOM  119 ------------------------
     Tr[ns(119)] =   3.00000
     eigenvalues:
       0.500  0.500  0.500
     eigenvectors (columns):
       1.000  0.000  0.000
       0.000  1.000  0.000
       0.000  0.000  1.000
     occupation matrix ns (before diag.):
       0.500  0.000  0.000
       0.000  0.500  0.000
       0.000  0.000  0.500
     ------------------------ ATOM  120 ------------------------
     Tr[ns(120)] =   3.00000
     eigenvalues:
       0.500  0.500  0.500
     eigenvectors (columns):
       1.000  0.000  0.000
       0.000  1.000  0.000
       0.000  0.000  1.000
     occupation matrix ns (before diag.):
       0.500  0.000  0.000
       0.000  0.500  0.000
       0.000  0.000  0.500
     ------------------------ ATOM  121 ------------------------
     Tr[ns(121)] =   1.00000
     eigenvalues:
       0.167  0.167  0.167
     eigenvectors (columns):
       1.000  0.000  0.000
       0.000  1.000  0.000
       0.000  0.000  1.000
     occupation matrix ns (before diag.):
       0.167  0.000  0.000
       0.000  0.167  0.000
       0.000  0.000  0.167
     ------------------------ ATOM  122 ------------------------
     Tr[ns(122)] =   1.00000
     eigenvalues:
       0.167  0.167  0.167
     eigenvectors (columns):
       1.000  0.000  0.000
       0.000  1.000  0.000
       0.000  0.000  1.000
     occupation matrix ns (before diag.):
       0.167  0.000  0.000
       0.000  0.167  0.000
       0.000  0.000  0.167
     ------------------------ ATOM  123 ------------------------
     Tr[ns(123)] =   1.00000
     eigenvalues:
       0.167  0.167  0.167
     eigenvectors (columns):
       1.000  0.000  0.000
       0.000  1.000  0.000
       0.000  0.000  1.000
     occupation matrix ns (before diag.):
       0.167  0.000  0.000
       0.000  0.167  0.000
       0.000  0.000  0.167
     ------------------------ ATOM  124 ------------------------
     Tr[ns(124)] =   1.00000
     eigenvalues:
       0.167  0.167  0.167
     eigenvectors (columns):
       1.000  0.000  0.000
       0.000  1.000  0.000
       0.000  0.000  1.000
     occupation matrix ns (before diag.):
       0.167  0.000  0.000
       0.000  0.167  0.000
       0.000  0.000  0.167
     ------------------------ ATOM  125 ------------------------
     Tr[ns(125)] =   3.00000
     eigenvalues:
       0.500  0.500  0.500
     eigenvectors (columns):
       1.000  0.000  0.000
       0.000  1.000  0.000
       0.000  0.000  1.000
     occupation matrix ns (before diag.):
       0.500  0.000  0.000
       0.000  0.500  0.000
       0.000  0.000  0.500
     ------------------------ ATOM  126 ------------------------
     Tr[ns(126)] =   3.00000
     eigenvalues:
       0.500  0.500  0.500
     eigenvectors (columns):
       1.000  0.000  0.000
       0.000  1.000  0.000
       0.000  0.000  1.000
     occupation matrix ns (before diag.):
       0.500  0.000  0.000
       0.000  0.500  0.000
       0.000  0.000  0.500
     ------------------------ ATOM  127 ------------------------
     Tr[ns(127)] =   3.00000
     eigenvalues:
       0.500  0.500  0.500
     eigenvectors (columns):
       1.000  0.000  0.000
       0.000  1.000  0.000
       0.000  0.000  1.000
     occupation matrix ns (before diag.):
       0.500  0.000  0.000
       0.000  0.500  0.000
       0.000  0.000  0.500
     ------------------------ ATOM  128 ------------------------
     Tr[ns(128)] =   3.00000
     eigenvalues:
       0.500  0.500  0.500
     eigenvectors (columns):
       1.000  0.000  0.000
       0.000  1.000  0.000
       0.000  0.000  1.000
     occupation matrix ns (before diag.):
       0.500  0.000  0.000
       0.000  0.500  0.000
       0.000  0.000  0.500
     ------------------------ ATOM  129 ------------------------
     Tr[ns(129)] =   1.00000
     eigenvalues:
       0.167  0.167  0.167
     eigenvectors (columns):
       1.000  0.000  0.000
       0.000  1.000  0.000
       0.000  0.000  1.000
     occupation matrix ns (before diag.):
       0.167  0.000  0.000
       0.000  0.167  0.000
       0.000  0.000  0.167
     ------------------------ ATOM  130 ------------------------
     Tr[ns(130)] =   1.00000
     eigenvalues:
       0.167  0.167  0.167
     eigenvectors (columns):
       1.000  0.000  0.000
       0.000  1.000  0.000
       0.000  0.000  1.000
     occupation matrix ns (before diag.):
       0.167  0.000  0.000
       0.000  0.167  0.000
       0.000  0.000  0.167
     ------------------------ ATOM  131 ------------------------
     Tr[ns(131)] =   1.00000
     eigenvalues:
       0.167  0.167  0.167
     eigenvectors (columns):
       1.000  0.000  0.000
       0.000  1.000  0.000
       0.000  0.000  1.000
     occupation matrix ns (before diag.):
       0.167  0.000  0.000
       0.000  0.167  0.000
       0.000  0.000  0.167
     ------------------------ ATOM  132 ------------------------
     Tr[ns(132)] =   1.00000
     eigenvalues:
       0.167  0.167  0.167
     eigenvectors (columns):
       1.000  0.000  0.000
       0.000  1.000  0.000
       0.000  0.000  1.000
     occupation matrix ns (before diag.):
       0.167  0.000  0.000
       0.000  0.167  0.000
       0.000  0.000  0.167
     ------------------------ ATOM  133 ------------------------
     Tr[ns(133)] =   3.00000
     eigenvalues:
       0.500  0.500  0.500
     eigenvectors (columns):
       1.000  0.000  0.000
       0.000  1.000  0.000
       0.000  0.000  1.000
     occupation matrix ns (before diag.):
       0.500  0.000  0.000
       0.000  0.500  0.000
       0.000  0.000  0.500
     ------------------------ ATOM  134 ------------------------
     Tr[ns(134)] =   3.00000
     eigenvalues:
       0.500  0.500  0.500
     eigenvectors (columns):
       1.000  0.000  0.000
       0.000  1.000  0.000
       0.000  0.000  1.000
     occupation matrix ns (before diag.):
       0.500  0.000  0.000
       0.000  0.500  0.000
       0.000  0.000  0.500
     ------------------------ ATOM  135 ------------------------
     Tr[ns(135)] =   3.00000
     eigenvalues:
       0.500  0.500  0.500
     eigenvectors (columns):
       1.000  0.000  0.000
       0.000  1.000  0.000
       0.000  0.000  1.000
     occupation matrix ns (before diag.):
       0.500  0.000  0.000
       0.000  0.500  0.000
       0.000  0.000  0.500
     ------------------------ ATOM  136 ------------------------
     Tr[ns(136)] =   3.00000
     eigenvalues:
       0.500  0.500  0.500
     eigenvectors (columns):
       1.000  0.000  0.000
       0.000  1.000  0.000
       0.000  0.000  1.000
     occupation matrix ns (before diag.):
       0.500  0.000  0.000
       0.000  0.500  0.000
       0.000  0.000  0.500
     ------------------------ ATOM  137 ------------------------
     Tr[ns(137)] =   1.00000
     eigenvalues:
       0.167  0.167  0.167
     eigenvectors (columns):
       1.000  0.000  0.000
       0.000  1.000  0.000
       0.000  0.000  1.000
     occupation matrix ns (before diag.):
       0.167  0.000  0.000
       0.000  0.167  0.000
       0.000  0.000  0.167
     ------------------------ ATOM  138 ------------------------
     Tr[ns(138)] =   1.00000
     eigenvalues:
       0.167  0.167  0.167
     eigenvectors (columns):
       1.000  0.000  0.000
       0.000  1.000  0.000
       0.000  0.000  1.000
     occupation matrix ns (before diag.):
       0.167  0.000  0.000
       0.000  0.167  0.000
       0.000  0.000  0.167
     ------------------------ ATOM  139 ------------------------
     Tr[ns(139)] =   1.00000
     eigenvalues:
       0.167  0.167  0.167
     eigenvectors (columns):
       1.000  0.000  0.000
       0.000  1.000  0.000
       0.000  0.000  1.000
     occupation matrix ns (before diag.):
       0.167  0.000  0.000
       0.000  0.167  0.000
       0.000  0.000  0.167
     ------------------------ ATOM  140 ------------------------
     Tr[ns(140)] =   1.00000
     eigenvalues:
       0.167  0.167  0.167
     eigenvectors (columns):
       1.000  0.000  0.000
       0.000  1.000  0.000
       0.000  0.000  1.000
     occupation matrix ns (before diag.):
       0.167  0.000  0.000
       0.000  0.167  0.000
       0.000  0.000  0.167
     ------------------------ ATOM  141 ------------------------
     Tr[ns(141)] =   3.00000
     eigenvalues:
       0.500  0.500  0.500
     eigenvectors (columns):
       1.000  0.000  0.000
       0.000  1.000  0.000
       0.000  0.000  1.000
     occupation matrix ns (before diag.):
       0.500  0.000  0.000
       0.000  0.500  0.000
       0.000  0.000  0.500
     ------------------------ ATOM  142 ------------------------
     Tr[ns(142)] =   3.00000
     eigenvalues:
       0.500  0.500  0.500
     eigenvectors (columns):
       1.000  0.000  0.000
       0.000  1.000  0.000
       0.000  0.000  1.000
     occupation matrix ns (before diag.):
       0.500  0.000  0.000
       0.000  0.500  0.000
       0.000  0.000  0.500
     ------------------------ ATOM  143 ------------------------
     Tr[ns(143)] =   3.00000
     eigenvalues:
       0.500  0.500  0.500
     eigenvectors (columns):
       1.000  0.000  0.000
       0.000  1.000  0.000
       0.000  0.000  1.000
     occupation matrix ns (before diag.):
       0.500  0.000  0.000
       0.000  0.500  0.000
       0.000  0.000  0.500
     ------------------------ ATOM  144 ------------------------
     Tr[ns(144)] =   3.00000
     eigenvalues:
       0.500  0.500  0.500
     eigenvectors (columns):
       1.000  0.000  0.000
       0.000  1.000  0.000
       0.000  0.000  1.000
     occupation matrix ns (before diag.):
       0.500  0.000  0.000
       0.000  0.500  0.000
       0.000  0.000  0.500
     ------------------------ ATOM  145 ------------------------
     Tr[ns(145)] =   1.00000
     eigenvalues:
       0.167  0.167  0.167
     eigenvectors (columns):
       1.000  0.000  0.000
       0.000  1.000  0.000
       0.000  0.000  1.000
     occupation matrix ns (before diag.):
       0.167  0.000  0.000
       0.000  0.167  0.000
       0.000  0.000  0.167
     ------------------------ ATOM  146 ------------------------
     Tr[ns(146)] =   1.00000
     eigenvalues:
       0.167  0.167  0.167
     eigenvectors (columns):
       1.000  0.000  0.000
       0.000  1.000  0.000
       0.000  0.000  1.000
     occupation matrix ns (before diag.):
       0.167  0.000  0.000
       0.000  0.167  0.000
       0.000  0.000  0.167
     ------------------------ ATOM  147 ------------------------
     Tr[ns(147)] =   1.00000
     eigenvalues:
       0.167  0.167  0.167
     eigenvectors (columns):
       1.000  0.000  0.000
       0.000  1.000  0.000
       0.000  0.000  1.000
     occupation matrix ns (before diag.):
       0.167  0.000  0.000
       0.000  0.167  0.000
       0.000  0.000  0.167
     ------------------------ ATOM  148 ------------------------
     Tr[ns(148)] =   1.00000
     eigenvalues:
       0.167  0.167  0.167
     eigenvectors (columns):
       1.000  0.000  0.000
       0.000  1.000  0.000
       0.000  0.000  1.000
     occupation matrix ns (before diag.):
       0.167  0.000  0.000
       0.000  0.167  0.000
       0.000  0.000  0.167
     ------------------------ ATOM  149 ------------------------
     Tr[ns(149)] =   3.00000
     eigenvalues:
       0.500  0.500  0.500
     eigenvectors (columns):
       1.000  0.000  0.000
       0.000  1.000  0.000
       0.000  0.000  1.000
     occupation matrix ns (before diag.):
       0.500  0.000  0.000
       0.000  0.500  0.000
       0.000  0.000  0.500
     ------------------------ ATOM  150 ------------------------
     Tr[ns(150)] =   3.00000
     eigenvalues:
       0.500  0.500  0.500
     eigenvectors (columns):
       1.000  0.000  0.000
       0.000  1.000  0.000
       0.000  0.000  1.000
     occupation matrix ns (before diag.):
       0.500  0.000  0.000
       0.000  0.500  0.000
       0.000  0.000  0.500
     ------------------------ ATOM  151 ------------------------
     Tr[ns(151)] =   3.00000
     eigenvalues:
       0.500  0.500  0.500
     eigenvectors (columns):
       1.000  0.000  0.000
       0.000  1.000  0.000
       0.000  0.000  1.000
     occupation matrix ns (before diag.):
       0.500  0.000  0.000
       0.000  0.500  0.000
       0.000  0.000  0.500
     ------------------------ ATOM  152 ------------------------
[...]
   -19.6967 -19.6967 -19.6965 -19.6963 -19.6963 -19.6962 -19.6959 -19.6958
   -19.6958 -19.6956 -19.6955 -19.6953 -19.6952 -19.6951 -19.6951 -19.6948
   -19.6946 -19.6945 -19.6944 -19.6942 -19.6940 -19.6940 -19.6940 -19.6939
   -19.6935 -19.6935 -19.6932 -19.6931 -19.6928 -19.6928 -19.6926 -19.6925
   -19.6924 -19.6923 -19.6918 -19.6918 -19.6917 -19.6916 -19.6913 -19.6911
   -19.6910 -19.6909 -19.6907 -19.6907 -19.6906 -19.6900 -19.6899 -19.6899
   -19.6898 -19.6897 -19.6896 -19.6896 -19.6893 -19.6893 -19.6892 -19.6891
   -19.6891 -19.6890 -19.6887 -19.6886 -19.6886 -19.6883 -19.6882 -19.6880
   -19.6880 -19.6878 -19.6877 -19.6876 -19.6875 -19.6873 -19.6873 -19.6872
   -19.6871 -19.6870 -19.6870 -19.6868 -19.6863 -19.6862 -19.6860 -19.6860
   -19.6858 -19.6857 -19.6856 -19.6854 -19.6854 -19.6853 -19.6847 -19.6846
   -19.6845 -19.6844 -19.6843 -19.6842 -19.6842 -19.6840 -19.6840 -19.6838
   -19.6838 -19.6836 -19.6836 -19.6831 -19.6830 -19.6830 -19.6827 -19.6823
   -19.6820 -19.6818 -19.6817 -19.6816 -19.6814 -19.6812 -19.6809 -19.6808
   -19.6806 -19.6803 -19.6803 -19.6802 -19.6801 -19.6798 -19.6798 -19.6797
   -19.6795 -19.6794 -19.6791 -19.6790 -19.6788 -19.6785 -19.6784 -19.6783
   -19.6778 -19.6776 -19.6776 -19.6775 -19.6774 -19.6771 -19.6769 -19.6767
   -19.6759 -19.6757 -19.6756 -19.6756 -19.6755 -19.6754 -19.6753 -19.6752
   -19.6751 -19.6750 -19.6748 -19.6745 -19.6741 -19.6734 -19.6723 -19.6721
   -19.6720 -19.6720 -19.6716 -19.6715 -19.6715 -19.6708 -19.6701 -19.6698
   -19.6697 -19.6695 -19.6695 -19.6692 -19.6689 -19.6689 -19.6684 -19.6673
   -19.6667 -19.6663 -19.6659 -19.6659 -19.6658 -19.6657 -19.6653 -19.6640
   -19.6637 -19.6632 -19.6631 -19.6627 -19.6623 -19.6617 -19.6611 -19.6608
   -19.6604 -19.6602 -19.6599 -19.6590 -19.6580 -19.6574 -19.6569 -19.6567
   -19.6565 -19.6547 -19.6541 -19.6537 -19.6533 -19.6528 -19.6525 -19.6509
   -19.6504 -19.6450 -19.6370 -19.6336  -7.4823  -7.4782  -7.4777  -7.4739
    -7.4729  -7.4708  -7.4583  -7.4569  -7.4559  -7.4536  -7.4532  -7.4467
    -7.4449  -7.4446  -7.4346  -7.4320  -7.4290  -7.4285  -7.4231  -7.4140
    -7.4121  -7.4100  -7.4074  -7.4058  -7.4037  -7.4024  -7.4019  -7.4012
    -7.3995  -7.3995  -7.3969  -7.3954  -7.3936  -7.3920  -7.3898  -7.3894
    -7.3876  -7.3868  -7.3863  -7.3860  -7.3852  -7.3824  -7.3798  -7.3776
    -7.3770  -7.3759  -7.3759  -7.3732  -7.3727  -7.3717  -7.3704  -7.3675
    -7.3659  -7.3650  -7.3646  -7.3645  -7.3633  -7.3629  -7.3627  -7.3621
    -7.3612  -7.3603  -7.3573  -7.3568  -7.3557  -7.3545  -7.3543  -7.3541
    -7.3537  -7.3526  -7.3520  -7.3513  -7.3512  -7.3507  -7.3493  -7.3486
    -7.3483  -7.3455  -7.3438  -7.3437  -7.3430  -7.3425  -7.3421  -7.3417
    -7.3404  -7.3396  -7.3394  -7.3388  -7.3381  -7.3376  -7.3371  -7.3369
    -7.3364  -7.3358  -7.3351  -7.3347  -7.3345  -7.3344  -7.3338  -7.3335
    -7.3327  -7.3316  -7.3311  -7.3303  -7.3290  -7.3287  -7.3279  -7.3272
    -7.3261  -7.3259  -7.3253  -7.3249  -7.3241  -7.3238  -7.3235  -7.3227
    -7.3225  -7.3222  -7.3211  -7.3207  -7.3200  -7.3190  -7.3185  -7.3182
    -7.3179  -7.3164  -7.3161  -7.3153  -7.3153  -7.3148  -7.3144  -7.3137
    -7.3134  -7.3126  -7.3125  -7.3123  -7.3121  -7.3117  -7.3115  -7.3104
    -7.3100  -7.3097  -7.3095  -7.3089  -7.3087  -7.3079  -7.3076  -7.3074
    -7.3071  -7.3069  -7.3064  -7.3059  -7.3051  -7.3039  -7.3034  -7.3030
    -7.3027  -7.3023  -7.3020  -7.3017  -7.3015  -7.3008  -7.2998  -7.2994
    -7.2989  -7.2987  -7.2982  -7.2976  -7.2974  -7.2968  -7.2967  -7.2966
    -7.2965  -7.2959  -7.2957  -7.2952  -7.2951  -7.2943  -7.2943  -7.2939
    -7.2936  -7.2932  -7.2927  -7.2924  -7.2922  -7.2918  -7.2911  -7.2909
    -7.2905  -7.2900  -7.2898  -7.2894  -7.2889  -7.2887  -7.2884  -7.2881
    -7.2876  -7.2871  -7.2870  -7.2867  -7.2862  -7.2860  -7.2854  -7.2852
    -7.2848  -7.2842  -7.2841  -7.2834  -7.2834  -7.2827  -7.2824  -7.2820
    -7.2817  -7.2815  -7.2812  -7.2807  -7.2806  -7.2799  -7.2795  -7.2787
    -7.2786  -7.2777  -7.2773  -7.2770  -7.2764  -7.2759  -7.2756  -7.2752
    -7.2750  -7.2745  -7.2742  -7.2737  -7.2736  -7.2730  -7.2728  -7.2724
    -7.2721  -7.2719  -7.2717  -7.2713  -7.2709  -7.2709  -7.2705  -7.2701
    -7.2697  -7.2691  -7.2689  -7.2684  -7.2683  -7.2681  -7.2678  -7.2673
    -7.2670  -7.2666  -7.2663  -7.2656  -7.2653  -7.2653  -7.2649  -7.2646
    -7.2645  -7.2644  -7.2640  -7.2637  -7.2631  -7.2631  -7.2623  -7.2622
    -7.2618  -7.2616  -7.2609  -7.2608  -7.2605  -7.2603  -7.2600  -7.2598
    -7.2593  -7.2591  -7.2586  -7.2585  -7.2579  -7.2575  -7.2572  -7.2571
    -7.2568  -7.2565  -7.2559  -7.2558  -7.2553  -7.2551  -7.2550  -7.2547
    -7.2543  -7.2541  -7.2539  -7.2534  -7.2529  -7.2521  -7.2517  -7.2516
    -7.2511  -7.2506  -7.2505  -7.2501  -7.2498  -7.2496  -7.2495  -7.2488
    -7.2486  -7.2479  -7.2475  -7.2474  -7.2472  -7.2468  -7.2466  -7.2463
    -7.2450  -7.2448  -7.2446  -7.2441  -7.2438  -7.2435  -7.2429  -7.2423
    -7.2421  -7.2419  -7.2414  -7.2412  -7.2411  -7.2406  -7.2401  -7.2395
    -7.2392  -7.2391  -7.2385  -7.2384  -7.2378  -7.2375  -7.2371  -7.2370
    -7.2369  -7.2364  -7.2364  -7.2363  -7.2359  -7.2356  -7.2350  -7.2346
    -7.2343  -7.2334  -7.2329  -7.2326  -7.2322  -7.2317  -7.2316  -7.2313
    -7.2311  -7.2305  -7.2303  -7.2299  -7.2298  -7.2295  -7.2294  -7.2291
    -7.2282  -7.2277  -7.2276  -7.2271  -7.2269  -7.2265  -7.2263  -7.2261
    -7.2256  -7.2253  -7.2246  -7.2244  -7.2239  -7.2237  -7.2232  -7.2229
    -7.2221  -7.2220  -7.2219  -7.2216  -7.2213  -7.2210  -7.2208  -7.2201
    -7.2193  -7.2188  -7.2186  -7.2185  -7.2183  -7.2183  -7.2177  -7.2176
    -7.2174  -7.2171  -7.2161  -7.2157  -7.2151  -7.2149  -7.2145  -7.2132
    -7.2129  -7.2128  -7.2127  -7.2114  -7.2113  -7.2113  -7.2109  -7.2102
    -7.2101  -7.2095  -7.2093  -7.2083  -7.2079  -7.2075  -7.2066  -7.2056
    -7.2046  -7.2044  -7.2038  -7.2020  -7.2011  -7.2009  -7.2004  -7.1994
    -7.1991  -7.1989  -7.1984  -7.1980  -7.1978  -7.1976  -7.1974  -7.1966
    -7.1961  -7.1959  -7.1955  -7.1953  -7.1952  -7.1951  -7.1949  -7.1946
    -7.1944  -7.1942  -7.1940  -7.1917  -7.1915  -7.1910  -7.1903  -7.1895
    -7.1888  -7.1886  -7.1872  -7.1868  -7.1866  -7.1857  -7.1848  -7.1846
    -7.1842  -7.1838  -7.1828  -7.1827  -7.1816  -7.1811  -7.1804  -7.1804
    -7.1801  -7.1799  -7.1788  -7.1771  -7.1766  -7.1762  -7.1758  -7.1752
    -7.1745  -7.1739  -7.1736  -7.1728  -7.1724  -7.1716  -7.1714  -7.1712
    -7.1709  -7.1703  -7.1693  -7.1686  -7.1677  -7.1669  -7.1664  -7.1648
    -7.1645  -7.1636  -7.1624  -7.1595  -7.1583  -7.1571  -7.1566  -7.1553
    -7.1546  -7.1543  -7.1536  -7.1519  -7.1515  -7.1510  -7.1500  -7.1492
    -7.1489  -7.1482  -7.1474  -7.1471  -7.1467  -7.1456  -7.1447  -7.1431
    -7.1409  -7.1390  -7.1348  -7.1344  -7.1340  -7.1339  -7.1321  -7.1320
    -7.1312  -7.1311  -7.1306  -7.1268  -7.1260  -7.1258  -7.1248  -7.1230
    -7.1076  -7.1074  -7.1060  -7.1035  -7.0999  -7.0987  -7.0917  -7.0903
    -3.4785  -3.4161  -3.3767  -3.3359  -3.3015  -3.2562  -3.2183  -3.1757
    -3.1312  -3.0969  -3.0554  -3.0293  -2.9897  -2.9520  -2.9172  -2.8955
    -2.8283  -2.7878  -2.7698  -2.7408  -2.6974  -2.6773  -2.6214  -2.6037
    -2.5777  -2.5543  -2.5465  -2.4962  -2.4918  -2.4412  -2.4138  -2.3862
    -2.3592  -2.3407  -2.3177  -2.2985  -2.2736  -2.2555  -2.2249  -2.2119
    -2.1805  -2.1404  -2.0984  -2.0834  -2.0666  -2.0512  -2.0349  -2.0077
    -1.9930  -1.9900  -1.9812  -1.9690  -1.9495  -1.9390  -1.9251  -1.9206
    -1.8339  -1.7895  -1.7413  -1.7091  -1.6783  -1.6518  -1.6255  -1.5940
    -1.5826  -1.5528  -1.5409  -1.5150  -1.5118  -1.4854  -1.4702  -1.4580
    -1.4558  -1.4449  -1.4229  -1.4132  -1.3952  -1.3811  -1.3661  -1.3436
    -1.3237  -1.2684  -1.2561  -1.2217  -1.1802  -1.1767  -1.1661  -1.1404
    -1.1318  -1.0938  -1.0892  -1.0786  -1.0702  -1.0598  -1.0423  -1.0275
    -0.9462  -0.8841  -0.8691  -0.8418  -0.8300  -0.8051  -0.7892  -0.7692
    -0.7557  -0.7099  -0.7036  -0.6451  -0.2974  -0.2126  -0.1625  -0.0658
     0.0673   0.0886   0.1217   0.1495   0.1524   0.1911   0.2120   0.2424
     0.2491   0.2538   0.3094   0.3337   0.3611   0.3822   0.4044   0.4136
     0.4191   0.4603   0.4792   0.5126   0.5536   0.5577   0.5699   0.5902
     0.6088   0.6234   0.6545   0.6753   0.6973   0.6990   0.7099   0.7180
     0.7349   0.7384   0.7446   0.7604   0.7778   0.7841   0.7941   0.8014
     0.8146   0.8259   0.8293   0.8380   0.8527   0.8628   0.8702   0.8713
     0.8847   0.9018   0.9170   0.9309   0.9405   0.9693   0.9841   0.9877
     1.4737   1.5035   1.5605   1.5711   1.6187   1.6651   1.7075   1.7292
     1.7552   1.7670   1.7772   1.8057   1.8461   1.8786   1.8993   1.9234
     1.9372   1.9450   1.9680   1.9868   1.9980   2.0084   2.0226   2.0416
     2.0452   2.0573   2.0813   2.0933   2.8782   2.9519   2.9679   3.0005
     3.0208   3.0325   3.0561   3.0797   3.0829   3.1051   3.1370   3.1387
     3.1649   3.1738   3.1954   3.2273   3.3342   3.3425   3.3635   3.3921
     3.4116   3.4231   3.4367   3.4419   3.4652   3.4812   3.5093   3.5164
     3.5284   3.5362   3.5537   3.5601   3.5856   3.6125   3.6320   3.6345
     3.6608   3.6797   3.6868   3.7012   3.7193   3.7317   3.7393   3.7418
     3.7538   3.7632   3.7888   3.8103   3.8167   3.8268   3.8450   3.8620
     3.8663   3.8777   3.8879   3.9154   3.9256   3.9331   3.9607   3.9823
     3.9933   4.0078   4.0330   4.0514   4.2073   4.2347   4.2937   4.3207
     4.3268   4.3353   4.3840   4.3929   4.4235   4.4392   4.4561   4.4695
     4.4808   4.5182   4.5247   4.5314   4.5529   4.5592   4.5717   4.5865
     4.5964   4.6078   4.6165   4.6401   4.6603   4.6778   4.6899   4.7073
     4.7270   4.7529   4.7612   4.7677   4.7949   4.8000   4.8192   4.8447
     4.8614   4.8725   4.8839   4.8999   4.9210   4.9312   4.9428   4.9642
     4.9792   4.9976   5.0126   5.0272   5.0534   5.0570   5.0693   5.0793
     5.0850   5.1001   5.1064   5.1229   5.1430   5.1537   5.1646   5.1785
     5.1898   5.2032   5.2126   5.2304   5.2411   5.2505   5.2739   5.2793
     5.2928   5.3050   5.3217   5.3326   5.3456   5.3613   5.3700   5.3921
     5.4008   5.4061   5.4237   5.4347   5.4508   5.4572   5.4784   5.4943
     5.5040   5.5362   5.5552   5.5650   5.5720   5.5867   5.5925   5.6103
     5.6255   5.6439   5.6548   5.6714   5.6814   5.6878   5.7011   5.7208
     5.7390   5.7647   5.7736   5.7765   5.7829   5.7960   5.8097   5.8252
     5.8314   5.8567   5.8828   5.8990   5.9374   5.9747   5.9876   6.0237
     6.0506   6.0776   6.0883   6.1305   6.1464   6.1692   6.1828   6.2105
     6.2175   6.2254   6.2530   6.2769   6.2794   6.3234   6.3391   6.3434
     6.3601   6.3727   6.3817   6.3885   6.3914   6.4027   6.4203   6.4284
     6.4391   6.4565   6.4776   6.4838   6.5050   6.5261   6.5397   6.5468
     6.5809   6.6026   6.6309   6.6614   6.6788   6.6832   6.6862   6.7013
     6.7066   6.7241   6.7396   6.7569   6.7658   6.7833   6.8001   6.8220
     6.8992   6.9517   6.9816   6.9994   7.4529   7.4907   7.5187   7.5711
     9.1044   9.1767   9.1866   9.2505   9.2649   9.2989   9.3847   9.4173
     9.4261   9.4595   9.4679   9.4911   9.5137   9.5207   9.5303   9.5422
     9.5623   9.5791   9.5851   9.6062   9.6168   9.6175   9.6301   9.6368
     9.6596   9.6913   9.7008   9.7229   9.7432   9.7487   9.7632   9.7915
     9.8194   9.8389   9.8504   9.8560   9.8616   9.8657   9.8727   9.8931
     9.9115   9.9203   9.9365   9.9422   9.9571   9.9714   9.9868   9.9985
    10.0085  10.0204  10.0469  10.0550  10.0693  10.0723  10.0995  10.1096
    10.1268  10.1407  10.1523  10.1714  10.1885  10.1975  10.2179  10.2193
    10.2342  10.2627  10.2690  10.2696  10.2789  10.2820  10.2859  10.3036
    10.3349  10.3360  10.3402  10.3439  10.3472  10.3606  10.3707  10.3764
    10.3881  10.3994  10.4067  10.4147  10.4561  10.4840  10.4884  10.4993
    10.5072  10.5299  10.5341  10.5505  10.5539  10.5695  10.5800  10.5908
    10.6072  10.6145  10.6321  10.6422  10.6520  10.6573  10.6684  10.6984
    10.7098  10.7282  10.7322  10.7515  11.0781  11.1037  11.1117  11.1620
    11.2757  11.2884  11.3114  11.3336  11.3484  11.3607  11.3651  11.3887
    11.4027  11.4156  11.4340  11.4526  11.4639  11.4732  11.4985  11.5035
    11.5099  11.5181  11.5476  11.5561  11.5680  11.5723  11.5812  11.5831
    11.5888  11.6029  11.6116  11.6186  11.6250  11.6355  11.6465  11.6536
    11.6578  11.6679  11.6824  11.7002  11.7078  11.7249  11.7424  11.7525
    11.8933  11.9096  11.9331  11.9469  11.9565  11.9613  11.9717  11.9760
    11.9819  11.9942  12.0100  12.0187  12.0239  12.0332  12.0485  12.0598
    12.1616  12.1807  12.1952  12.1967  12.2050  12.2133  12.2277  12.2367
    12.2374  12.2529  12.2573  12.2626  12.2740  12.2822  12.2874  12.2909
    12.2997  12.3121  12.3234  12.3301  12.3399  12.3424  12.3569  12.3614
    12.3723  12.3751  12.3860  12.3941  12.4078  12.4124  12.4305  12.4374
    12.4427  12.4583  12.4616  12.4666  12.4759  12.4819  12.4997  12.5178
    12.5211  12.5257  12.5312  12.5397  12.5568  12.5622  12.5689  12.5729
    12.5877  12.5930  12.6042  12.6203  12.6532  12.6638  12.6703  12.7024
    12.7080  12.7300  12.7492  12.7796  12.8637  12.8740  12.8944  12.9053
    12.9184  12.9278  12.9357  12.9399  12.9962  13.0104  13.0341  13.0447
    13.0527  13.0579  13.0647  13.0817  13.0937  13.1045  13.1094  13.1162
    13.1221  13.1343  13.1434  13.1500  13.1581  13.1661  13.1681  13.1764
    13.1819  13.1849  13.2045  13.2098  13.2179  13.2243  13.2279  13.2351
    13.2515  13.2641  13.2745  13.2950  13.2977  13.3210  13.3410  13.3445
    13.3470  13.3708  13.3775  13.3895  13.3988  13.4285  13.4465  13.4484
    13.4634  13.4819  13.4942  13.5059  13.5769  13.5955  13.6237  13.6360
    13.6446  13.6556  13.6692  13.6855  13.6882  13.6976  13.7025  13.7111
    13.7209  13.7225  13.7375  13.7423  13.7508  13.7660  13.7727  13.7822
    13.7995  13.8013  13.8100  13.8190  13.8365  13.8405  13.8450  13.8541
    13.8588  13.8723  13.8836  13.8914  13.8985  13.9117  13.9262  13.9292
    13.9354  13.9427  13.9520  13.9622  13.9667  13.9728  13.9794  13.9874
    13.9962  14.0084  14.0211  14.0222  14.0311  14.0397  14.0439  14.0530
    14.0581  14.0686  14.0749  14.0802  14.0880  14.0917  14.1037  14.1193
    14.1291  14.1332  14.1432  14.1487  14.1616  14.1650  14.1832  14.1979
    14.3236  14.3584  14.3788  14.3843  14.4217  14.4355  14.4499  14.4643
    14.6146  14.6376  14.6583  14.6945  14.7096  14.7307  14.7644  14.7801
    14.8739  14.8887  14.9053  14.9125  14.9305  14.9405  14.9576  14.9656
    14.9712  14.9851  15.0002  15.0099  15.0198  15.0478  15.0595  15.0730
    15.2240  15.2458  15.2734  15.2867  15.2941  15.3146  15.3315  15.3522
    15.3552  15.3638  15.3726  15.3756  15.3794  15.3919  15.4037  15.4108
    15.4162  15.4269  15.4326  15.4393  15.4589  15.4819  15.4846  15.5037
    15.5088  15.5214  15.5369  15.5419  15.5822  15.5859  15.5922  15.6089
    15.6143  15.6298  15.6439  15.6454  15.6715  15.6790  15.6898  15.7030
    15.7114  15.7241  15.7506  15.7790  15.8187  15.8354  15.8696  15.8760
    15.8801  15.8973  15.9044  15.9364  15.9594  15.9846  16.0105  16.0248
    16.0339  16.0661  16.0864  16.1094  16.1398  16.1552  16.1876  16.1914
    16.2005  16.2124  16.2162  16.2223  16.2255  16.2415  16.2488  16.2554
    16.2673  16.2684  16.2805  16.2844  16.2923  16.2979  16.3181  16.3248
    16.3671  16.3781  16.3867  16.3912  16.4511  16.4783  16.4989  16.5037
    16.5130  16.5193  16.5255  16.5400  16.5598  16.5620  16.5747  16.5818
    16.5920  16.6003  16.6057  16.6197  16.6235  16.6343  16.6433  16.6516
    16.6644  16.6687  16.6727  16.6962  16.6983  16.7003  16.7147  16.7226
    16.7331  16.7384  16.7478  16.7651  16.7711  16.7808  16.7921  16.7968
    16.8053  16.8241  16.8411  16.8535  16.8567  16.8684  16.8755  16.8894
    16.8942  16.9132  16.9175  16.9263  16.9337  16.9508  16.9625  16.9678
    16.9977  17.0064  17.0207  17.0248  17.0287  17.0464  17.0517  17.0585
    17.0684  17.0812  17.0826  17.0894  17.0967  17.1037  17.1080  17.1136
    17.1206  17.1287  17.1345  17.1444  17.1485  17.1609  17.1706  17.1728
    17.1822  17.1863  17.1882  17.1940  17.2098  17.2158  17.2277  17.2347
    17.2356  17.2510  17.2549  17.2610  17.2734  17.2978  17.3019  17.3095
    17.3675  17.3918  17.3964  17.4095  17.4572  17.4835  17.5073  17.5265
    17.6211  17.6307  17.6507  17.6667  17.6733  17.6836  17.6872  17.6924
    17.7022  17.7076  17.7168  17.7268  17.7303  17.7448  17.7585  17.7637
    17.7642  17.7754  17.7811  17.7851  17.7993  17.8199  17.8215  17.8605
    17.8900  17.8999  17.9183  17.9307  17.9452  17.9631  17.9737  17.9843
    18.0030  18.0177  18.0368  18.0395  18.0617  18.0869  18.0917  18.1092
    18.1265  18.1389  18.1543  18.1693  18.1756  18.2073  18.2127  18.2221
    18.2674  18.2823  18.2938  18.3255  18.3327  18.3592  18.3717  18.3883
    18.3950  18.4233  18.4260  18.4442  18.4473  18.4562  18.4658  18.4864
    18.4931  18.5010  18.5059  18.5144  18.5282  18.5310  18.5471  18.5608
    18.5691  18.5884  18.5941  18.6009  18.6111  18.6277  18.6355  18.6461

     highest occupied, lowest unoccupied level (ev):     7.6418    8.3600

!    total energy              =  -36980.90908388 Ry
     estimated scf accuracy    <       0.00000357 Ry

     The total energy is the sum of the following terms:
     one-electron contribution =  -18749.33497491 Ry
     hartree contribution      =   11367.75581754 Ry
     xc contribution           =   -9493.33799714 Ry
     ewald contribution        =  -20106.71430052 Ry
     Hubbard energy            =       0.72237115 Ry

     convergence has been achieved in  12 iterations

     Writing all to output data dir ./tmp_In0.0Ga1.0As0.25Sb0.75_cube_3x3x3.7/In0.0Ga1.0As0.25Sb0.75_cube_3x3x3.7.save/ :
     XML data file, charge density, pseudopotentials, collected wavefunctions

     init_run     :    239.26s CPU    241.89s WALL (       1 calls)
     electrons    :   9201.90s CPU   9222.97s WALL (       1 calls)

     Called by init_run:
     wfcinit      :    228.82s CPU    231.08s WALL (       1 calls)
     potinit      :      2.01s CPU      2.06s WALL (       1 calls)
     hinit0       :      1.80s CPU      1.82s WALL (       1 calls)

     Called by electrons:
     c_bands      :   8911.15s CPU   8931.11s WALL (      13 calls)
     sum_band     :    285.60s CPU    286.03s WALL (      13 calls)
     v_of_rho     :      3.39s CPU      3.51s WALL (      13 calls)
     mix_rho      :      0.78s CPU      0.80s WALL (      13 calls)

     Called by c_bands:
     init_us_2    :     33.11s CPU     33.66s WALL (      28 calls)
     cegterg      :   8530.56s CPU   8549.09s WALL (      13 calls)

     Called by *egterg:
     cdiaghg      :    822.83s CPU    823.49s WALL (     119 calls)
     h_psi        :   5001.46s CPU   5011.68s WALL (     121 calls)
     g_psi        :      4.34s CPU      4.35s WALL (     107 calls)

     Called by h_psi:
     h_psi:calbec :    888.50s CPU    888.57s WALL (     121 calls)
     vloc_psi     :    684.80s CPU    686.28s WALL (     121 calls)
     add_vuspsi   :    860.56s CPU    863.23s WALL (     121 calls)
     vhpsi        :   2559.49s CPU   2559.70s WALL (     121 calls)

     General routines
     calbec       :   1125.63s CPU   1125.74s WALL (     256 calls)
     fft          :      3.09s CPU      3.19s WALL (     131 calls)
     ffts         :      0.19s CPU      0.19s WALL (      13 calls)
     fftw         :    700.52s CPU    701.97s WALL (  162018 calls)

     Parallel routines

     Hubbard U routines
     new_ns       :     62.72s CPU     62.74s WALL (      13 calls)
     vhpsi        :   2559.49s CPU   2559.70s WALL (     121 calls)

     PWSCF        :      2h37m CPU      2h39m WALL


   This run was terminated on:   5:34:37  14Jun2025            

=------------------------------------------------------------------------------=
   JOB DONE.
=------------------------------------------------------------------------------=
