
     Program PWSCF v.7.3.1 starts on 12Jun2025 at 14:40:18 

     This program is part of the open-source Quantum ESPRESSO suite
     for quantum simulation of materials; please cite
         "P. Giannozzi et al., J. Phys.:Condens. Matter 21 395502 (2009);
         "P. Giannozzi et al., J. Phys.:Condens. Matter 29 465901 (2017);
         "P. Giannozzi et al., J. Chem. Phys. 152 154105 (2020);
          URL http://www.quantum-espresso.org", 
     in publications or presentations arising from this work. More details at
     http://www.quantum-espresso.org/quote

     Parallel version (MPI), running on   640 processors

     MPI processes distributed on     5 nodes
     492908 MiB available memory on the printing compute node when the environment starts

     Reading input from In0.0Ga1.0As0.25Sb0.75_cube_3x3x3.0.scf.in
Warning: card &CELL ignored
Warning: card   CELL_DOFREE = 'ALL', ignored
Warning: card / ignored

     Current dimensions of program PWSCF are:
     Max number of different atomic species (ntypx) = 10
     Max number of k-points (npk) =  40000
     Max angular momentum in pseudopotentials (lmaxx) =  4

     K-points division:     npool     =       8
     R & G space division:  proc/nbgrp/npool/nimage =      80
     Subspace diagonalization in iterative solution of the eigenvalue problem:
     one sub-group per band group will be used
     custom distributed-memory algorithm (size of sub-group:  8*  8 procs)


     Parallelization info
     --------------------
     sticks:   dense  smooth     PW     G-vecs:    dense   smooth      PW
     Min         552     552    142                87500    87500   11418
     Max         553     553    143                87509    87509   11423
     Sum       44229   44229  11385              7000505  7000505  913617

     Using Slab Decomposition



     bravais-lattice index     =            1
     lattice parameter (alat)  =      34.0337  a.u.
     unit-cell volume          =   39421.0538 (a.u.)^3
     number of atoms/cell      =          216
     number of atomic types    =            4
     number of electrons       =      3024.00
     number of Kohn-Sham states=         2160
     kinetic-energy cutoff     =     120.0000  Ry
     charge density cutoff     =     480.0000  Ry
     scf convergence threshold =      1.0E-05
     mixing beta               =       0.6500
     number of iterations used =            8  plain     mixing
     Exchange-correlation= PBE
                           (   1   4   3   4   0   0   0)
     Hubbard projectors: atomic
     Hubbard parameters of DFT+U (Dudarev formulation) in eV:
     U(As-4p) =  5.8400
     U(Ga-4p) = -2.3350
     U(In-5p) = -1.0575
     U(Sb-5p) =  4.8900

     Internal variables: lda_plus_u =T, lda_plus_u_kind = 0

     celldm(1)=  34.033719  celldm(2)=   0.000000  celldm(3)=   0.000000
     celldm(4)=   0.000000  celldm(5)=   0.000000  celldm(6)=   0.000000

     crystal axes: (cart. coord. in units of alat)
               a(1) = (   1.000000   0.000000   0.000000 )  
               a(2) = (   0.000000   1.000000   0.000000 )  
               a(3) = (   0.000000   0.000000   1.000000 )  

     reciprocal axes: (cart. coord. in units 2 pi/alat)
               b(1) = (  1.000000  0.000000  0.000000 )  
               b(2) = (  0.000000  1.000000  0.000000 )  
               b(3) = (  0.000000  0.000000  1.000000 )  


     PseudoPot. # 1 for As read from file:
     /work/i254/i254/gentles/data/pseudos/As.pbe.NC-SR.standard.v0.5.UPF
     MD5 check sum: bfe1a874457ce592347346129958e7cf
     Pseudo is Norm-conserving + core correction, Zval = 15.0
     Generated using ONCVPSP code by D. R. Hamann
     Using radial grid of 1358 points,  6 beta functions with: 
                l(1) =   0
                l(2) =   0
                l(3) =   1
                l(4) =   1
                l(5) =   2
                l(6) =   2

     PseudoPot. # 2 for Ga read from file:
     /work/i254/i254/gentles/data/pseudos/Ga.pbe.NC-SR.standard.v0.5.UPF
     MD5 check sum: 2bb81bf6f0a8d9832cf3329850435ecf
     Pseudo is Norm-conserving + core correction, Zval = 13.0
     Generated using ONCVPSP code by D. R. Hamann
     Using radial grid of 1902 points,  6 beta functions with: 
                l(1) =   0
                l(2) =   0
                l(3) =   1
                l(4) =   1
                l(5) =   2
                l(6) =   2

     PseudoPot. # 3 for In read from file:
     /work/i254/i254/gentles/data/pseudos/In.pbe.NC-SR.standard.v0.5.UPF
     MD5 check sum: 835f4bf908c982ff75c88e16816a8d7f
     Pseudo is Norm-conserving + core correction, Zval = 13.0
     Generated using ONCVPSP code by D. R. Hamann
     Using radial grid of 1964 points,  6 beta functions with: 
                l(1) =   0
                l(2) =   0
                l(3) =   1
                l(4) =   1
                l(5) =   2
                l(6) =   2

     PseudoPot. # 4 for Sb read from file:
     /work/i254/i254/gentles/data/pseudos/Sb.pbe.NC-SR.standard.v0.5.UPF
     MD5 check sum: 127f69b6101c45666faeae1b5d611565
     Pseudo is Norm-conserving + core correction, Zval = 15.0
     Generated using ONCVPSP code by D. R. Hamann
     Using radial grid of 1434 points,  6 beta functions with: 
                l(1) =   0
                l(2) =   0
                l(3) =   1
                l(4) =   1
                l(5) =   2
                l(6) =   2

     atomic species   valence    mass     pseudopotential
     As               15.00    74.92160     As( 1.00)
     Ga               13.00    69.72300     Ga( 1.00)
     In               13.00   114.81800     In( 1.00)
     Sb               15.00   121.76000     Sb( 1.00)

     No symmetry found



   Cartesian axes

     site n.     atom                  positions (alat units)
         1        Ga     tau(   1) = (   0.0058010   0.0037050   0.0050450  )
         2        Ga     tau(   2) = (   0.0009500   0.1641280   0.1576220  )
         3        Ga     tau(   3) = (   0.1629170   0.0088990   0.1667780  )
         4        Ga     tau(   4) = (   0.1604930   0.1612040  -0.0059510  )
         5        As     tau(   5) = (   0.0847340   0.0853430   0.0812840  )
         6        Sb     tau(   6) = (   0.0810140   0.2438770   0.2509460  )
         7        As     tau(   7) = (   0.2438590   0.0830550   0.2508170  )
         8        Sb     tau(   8) = (   0.2440860   0.2465110   0.0818050  )
         9        Ga     tau(   9) = (  -0.0019880   0.0000880   0.3430790  )
        10        Ga     tau(  10) = (   0.0039410   0.1708090   0.4949040  )
        11        Ga     tau(  11) = (   0.1554400   0.0006410   0.5010290  )
        12        Ga     tau(  12) = (   0.1629430   0.1559110   0.3355270  )
        13        As     tau(  13) = (   0.0797920   0.0822880   0.4187250  )
        14        As     tau(  14) = (   0.0808690   0.2495850   0.5813060  )
        15        Sb     tau(  15) = (   0.2445570   0.0815890   0.5832820  )
        16        Sb     tau(  16) = (   0.2451790   0.2468560   0.4191710  )
        17        Ga     tau(  17) = (   0.0054940  -0.0031570   0.6624630  )
        18        Ga     tau(  18) = (   0.0010100   0.1727790   0.8325680  )
        19        Ga     tau(  19) = (   0.1751970  -0.0011830   0.8325480  )
        20        Ga     tau(  20) = (   0.1606830   0.1712880   0.6614110  )
        21        Sb     tau(  21) = (   0.0852330   0.0833070   0.7502020  )
        22        As     tau(  22) = (   0.0812350   0.2453690   0.9173860  )
        23        As     tau(  23) = (   0.2455110   0.0830170   0.9153970  )
        24        Sb     tau(  24) = (   0.2462800   0.2509500   0.7497650  )
        25        Ga     tau(  25) = (   0.0013540   0.3223790  -0.0003150  )
        26        Ga     tau(  26) = (  -0.0043420   0.5031810   0.1643860  )
        27        Ga     tau(  27) = (   0.1632400   0.3328920   0.1689660  )
        28        Ga     tau(  28) = (   0.1651810   0.4994760  -0.0012710  )
        29        Sb     tau(  29) = (   0.0793600   0.4149710   0.0824120  )
        30        Sb     tau(  30) = (   0.0809660   0.5863310   0.2500130  )
        31        Sb     tau(  31) = (   0.2483540   0.4180880   0.2518600  )
        32        Sb     tau(  32) = (   0.2481760   0.5847760   0.0821950  )
        33        Ga     tau(  33) = (  -0.0020750   0.3281690   0.3372240  )
        34        Ga     tau(  34) = (  -0.0001010   0.5025650   0.5018750  )
        35        Ga     tau(  35) = (   0.1642970   0.3336390   0.5096450  )
        36        Ga     tau(  36) = (   0.1682530   0.5052490   0.3382580  )
        37        Sb     tau(  37) = (   0.0837160   0.4163450   0.4192830  )
        38        Sb     tau(  38) = (   0.0869080   0.5841420   0.5856980  )
        39        As     tau(  39) = (   0.2470580   0.4174220   0.5837760  )
        40        As     tau(  40) = (   0.2483670   0.5827570   0.4194590  )
        41        Ga     tau(  41) = (   0.0004740   0.3249110   0.6647600  )
        42        Ga     tau(  42) = (   0.0015210   0.4987470   0.8325980  )
        43        Ga     tau(  43) = (   0.1598110   0.3268780   0.8394300  )
        44        Ga     tau(  44) = (   0.1743810   0.4992750   0.6674670  )
        45        Sb     tau(  45) = (   0.0848640   0.4131080   0.7483380  )
        46        Sb     tau(  46) = (   0.0831880   0.5866120   0.9153580  )
        47        Sb     tau(  47) = (   0.2476140   0.4153940   0.9149130  )
        48        As     tau(  48) = (   0.2478810   0.5852090   0.7480530  )
        49        Ga     tau(  49) = (   0.0007630   0.6663640   0.0085080  )
        50        Ga     tau(  50) = (  -0.0008740   0.8275120   0.1689430  )
        51        Ga     tau(  51) = (   0.1610430   0.6712960   0.1624430  )
        52        Ga     tau(  52) = (   0.1593040   0.8287770   0.0048210  )
        53        As     tau(  53) = (   0.0791760   0.7495780   0.0858830  )
        54        Sb     tau(  54) = (   0.0802480   0.9197270   0.2507910  )
        55        Sb     tau(  55) = (   0.2480880   0.7484550   0.2502490  )
        56        Sb     tau(  56) = (   0.2455120   0.9189370   0.0842360  )
        57        Ga     tau(  57) = (  -0.0064960   0.6726230   0.3299900  )
        58        Ga     tau(  58) = (   0.0007690   0.8419510   0.5003700  )
        59        Ga     tau(  59) = (   0.1691750   0.6643160   0.4965230  )
        60        Ga     tau(  60) = (   0.1657220   0.8349490   0.3322580  )
        61        Sb     tau(  61) = (   0.0813070   0.7518550   0.4168340  )
        62        As     tau(  62) = (   0.0824520   0.9173980   0.5829530  )
        63        Sb     tau(  63) = (   0.2470900   0.7511450   0.5864450  )
        64        Sb     tau(  64) = (   0.2456360   0.9201280   0.4177970  )
        65        Ga     tau(  65) = (   0.0063480   0.6744840   0.6688490  )
        66        Ga     tau(  66) = (   0.0057660   0.8288870   0.8284140  )
        67        Ga     tau(  67) = (   0.1653360   0.6677830   0.8231940  )
        68        Ga     tau(  68) = (   0.1613970   0.8387770   0.6677660  )
        69        As     tau(  69) = (   0.0863920   0.7533570   0.7471670  )
        70        Sb     tau(  70) = (   0.0849160   0.9170330   0.9159360  )
        71        Sb     tau(  71) = (   0.2463900   0.7511600   0.9127190  )
        72        As     tau(  72) = (   0.2473610   0.9143960   0.7483430  )
        73        Ga     tau(  73) = (   0.3260180   0.0041540  -0.0060690  )
        74        Ga     tau(  74) = (   0.3242940   0.1619130   0.1714850  )
        75        Ga     tau(  75) = (   0.4985030  -0.0004830   0.1654230  )
        76        Ga     tau(  76) = (   0.5031760   0.1717480   0.0063160  )
        77        Sb     tau(  77) = (   0.4123810   0.0840590   0.0831100  )
        78        Sb     tau(  78) = (   0.4156050   0.2473800   0.2486600  )
        79        Sb     tau(  79) = (   0.5854490   0.0807490   0.2497110  )
        80        As     tau(  80) = (   0.5857530   0.2505190   0.0836060  )
        81        Ga     tau(  81) = (   0.3253030   0.0046630   0.3287770  )
        82        Ga     tau(  82) = (   0.3328060   0.1629060   0.5004040  )
        83        Ga     tau(  83) = (   0.5054150  -0.0067860   0.4947140  )
        84        Ga     tau(  84) = (   0.5020640   0.1658830   0.3339970  )
        85        Sb     tau(  85) = (   0.4169510   0.0800670   0.4150080  )
        86        Sb     tau(  86) = (   0.4136250   0.2502050   0.5840570  )
        87        Sb     tau(  87) = (   0.5832050   0.0803370   0.5818960  )
        88        Sb     tau(  88) = (   0.5866680   0.2516420   0.4174130  )
        89        Ga     tau(  89) = (   0.3253640  -0.0054060   0.6691570  )
        90        Ga     tau(  90) = (   0.3260400   0.1623710   0.8371320  )
        91        Ga     tau(  91) = (   0.5005430   0.0007800   0.8324910  )
        92        Ga     tau(  92) = (   0.4969980   0.1642340   0.6672130  )
        93        Sb     tau(  93) = (   0.4108860   0.0808280   0.7509520  )
        94        Sb     tau(  94) = (   0.4149100   0.2476550   0.9175980  )
        95        Sb     tau(  95) = (   0.5828970   0.0849260   0.9190250  )
        96        Sb     tau(  96) = (   0.5834430   0.2488360   0.7490610  )
        97        Ga     tau(  97) = (   0.3314440   0.3322990   0.0006610  )
        98        Ga     tau(  98) = (   0.3328450   0.5004600   0.1668290  )
        99        Ga     tau(  99) = (   0.5048840   0.3279360   0.1629740  )
       100        Ga     tau( 100) = (   0.4984040   0.5007330  -0.0020240  )
       101        Sb     tau( 101) = (   0.4174670   0.4152590   0.0837040  )
       102        Sb     tau( 102) = (   0.4152570   0.5845440   0.2519830  )
       103        Sb     tau( 103) = (   0.5848560   0.4148310   0.2507930  )
       104        Sb     tau( 104) = (   0.5829120   0.5836780   0.0842070  )
       105        Ga     tau( 105) = (   0.3315270   0.3316350   0.3345990  )
       106        Ga     tau( 106) = (   0.3231250   0.4997170   0.5021400  )
       107        Ga     tau( 107) = (   0.4990870   0.3340940   0.5013290  )
       108        Ga     tau( 108) = (   0.5004510   0.5004570   0.3336720  )
       109        Sb     tau( 109) = (   0.4131610   0.4185540   0.4189360  )
       110        Sb     tau( 110) = (   0.4126130   0.5837310   0.5858670  )
       111        Sb     tau( 111) = (   0.5852870   0.4186370   0.5829370  )
       112        Sb     tau( 112) = (   0.5882620   0.5834810   0.4164910  )
       113        Ga     tau( 113) = (   0.3277800   0.3391310   0.6628580  )
       114        Ga     tau( 114) = (   0.3252800   0.5049420   0.8280590  )
       115        Ga     tau( 115) = (   0.4960170   0.3328030   0.8314300  )
       116        Ga     tau( 116) = (   0.5043530   0.5054220   0.6694970  )
       117        Sb     tau( 117) = (   0.4142650   0.4206730   0.7475490  )
       118        Sb     tau( 118) = (   0.4151580   0.5843060   0.9114240  )
       119        Sb     tau( 119) = (   0.5824180   0.4158860   0.9152750  )
       120        As     tau( 120) = (   0.5816680   0.5852440   0.7499830  )
       121        Ga     tau( 121) = (   0.3322740   0.6679340  -0.0034650  )
       122        Ga     tau( 122) = (   0.3327590   0.8347220   0.1684620  )
       123        Ga     tau( 123) = (   0.5007260   0.6695170   0.1694810  )
       124        Ga     tau( 124) = (   0.4991500   0.8342600  -0.0010480  )
       125        Sb     tau( 125) = (   0.4156380   0.7509730   0.0832440  )
       126        Sb     tau( 126) = (   0.4160690   0.9183760   0.2534080  )
       127        Sb     tau( 127) = (   0.5865980   0.7540510   0.2536480  )
       128        Sb     tau( 128) = (   0.5865830   0.9157770   0.0846640  )
       129        Ga     tau( 129) = (   0.3275580   0.6620580   0.3387800  )
       130        Ga     tau( 130) = (   0.3311310   0.8345410   0.5011660  )
       131        Ga     tau( 131) = (   0.4996770   0.6655310   0.5006800  )
       132        Ga     tau( 132) = (   0.5041860   0.8381310   0.3397530  )
       133        Sb     tau( 133) = (   0.4153140   0.7501050   0.4170040  )
       134        Sb     tau( 134) = (   0.4164820   0.9162740   0.5841610  )
       135        Sb     tau( 135) = (   0.5848920   0.7510960   0.5825740  )
       136        As     tau( 136) = (   0.5884650   0.9149570   0.4169540  )
       137        Ga     tau( 137) = (   0.3312840   0.6679670   0.6743270  )
       138        Ga     tau( 138) = (   0.3311720   0.8329720   0.8242970  )
       139        Ga     tau( 139) = (   0.4983400   0.6677830   0.8244880  )
       140        Ga     tau( 140) = (   0.4943500   0.8276550   0.6696800  )
       141        As     tau( 141) = (   0.4138380   0.7488010   0.7496360  )
       142        Sb     tau( 142) = (   0.4129190   0.9171050   0.9130500  )
       143        Sb     tau( 143) = (   0.5817850   0.7492330   0.9140440  )
       144        Sb     tau( 144) = (   0.5838000   0.9157500   0.7468570  )
       145        Ga     tau( 145) = (   0.6690790   0.0015090   0.0008390  )
       146        Ga     tau( 146) = (   0.6642820   0.1706970   0.1650960  )
       147        Ga     tau( 147) = (   0.8295890  -0.0044770   0.1769130  )
       148        Ga     tau( 148) = (   0.8390830   0.1690540   0.0058930  )
       149        Sb     tau( 149) = (   0.7523250   0.0838670   0.0877390  )
       150        Sb     tau( 150) = (   0.7537690   0.2504440   0.2503780  )
       151        Sb     tau( 151) = (   0.9196300   0.0829550   0.2513110  )
       152        As     tau( 152) = (   0.9211000   0.2468210   0.0821930  )
       153        Ga     tau( 153) = (   0.6692540  -0.0084850   0.3332880  )
       154        Ga     tau( 154) = (   0.6693470   0.1641550   0.5005720  )
       155        Ga     tau( 155) = (   0.8358060  -0.0080360   0.4990500  )
       156        Ga     tau( 156) = (   0.8401630   0.1695240   0.3371640  )
       157        Sb     tau( 157) = (   0.7534620   0.0792590   0.4157590  )
       158        Sb     tau( 158) = (   0.7557890   0.2493700   0.5819250  )
       159        Sb     tau( 159) = (   0.9211820   0.0830950   0.5799770  )
       160        As     tau( 160) = (   0.9190190   0.2497180   0.4169900  )
       161        Ga     tau( 161) = (   0.6728270  -0.0057110   0.6587040  )
       162        Ga     tau( 162) = (   0.6687000   0.1645770   0.8327730  )
       163        Ga     tau( 163) = (   0.8386770   0.0006310   0.8333470  )
       164        Ga     tau( 164) = (   0.8427110   0.1697890   0.6698600  )
       165        Sb     tau( 165) = (   0.7538560   0.0816960   0.7465240  )
       166        Sb     tau( 166) = (   0.7533320   0.2487980   0.9173190  )
       167        Sb     tau( 167) = (   0.9208650   0.0862470   0.9188430  )
       168        As     tau( 168) = (   0.9208690   0.2503890   0.7502050  )
       169        Ga     tau( 169) = (   0.6652770   0.3307460   0.0021940  )
       170        Ga     tau( 170) = (   0.6689800   0.5010110   0.1685410  )
       171        Ga     tau( 171) = (   0.8416820   0.3268710   0.1620000  )
       172        Ga     tau( 172) = (   0.8391690   0.5040760   0.0041210  )
       173        Sb     tau( 173) = (   0.7538250   0.4154960   0.0842870  )
       174        Sb     tau( 174) = (   0.7538550   0.5858890   0.2528040  )
       175        Sb     tau( 175) = (   0.9170110   0.4144500   0.2507130  )
       176        As     tau( 176) = (   0.9188660   0.5854690   0.0854830  )
       177        Ga     tau( 177) = (   0.6739270   0.3375610   0.3367490  )
       178        Ga     tau( 178) = (   0.6740170   0.4942770   0.4950570  )
       179        Ga     tau( 179) = (   0.8358990   0.3316160   0.4910370  )
       180        Ga     tau( 180) = (   0.8298110   0.4941640   0.3373450  )
       181        As     tau( 181) = (   0.7535300   0.4138700   0.4167420  )
       182        Sb     tau( 182) = (   0.7501110   0.5847700   0.5804530  )
       183        Sb     tau( 183) = (   0.9173910   0.4127600   0.5811520  )
       184        Sb     tau( 184) = (   0.9133750   0.5848560   0.4161850  )
       185        Ga     tau( 185) = (   0.6688240   0.3327300   0.6647750  )
       186        Ga     tau( 186) = (   0.6626730   0.5045520   0.8300590  )
       187        Ga     tau( 187) = (   0.8383480   0.3310230   0.8290900  )
       188        Ga     tau( 188) = (   0.8360650   0.5014000   0.6635330  )
       189        Sb     tau( 189) = (   0.7510150   0.4187660   0.7490780  )
       190        Sb     tau( 190) = (   0.7512340   0.5840160   0.9168470  )
       191        Sb     tau( 191) = (   0.9196370   0.4138220   0.9183730  )
       192        Sb     tau( 192) = (   0.9206110   0.5854260   0.7480720  )
       193        Ga     tau( 193) = (   0.6674330   0.6684790   0.0013670  )
       194        Ga     tau( 194) = (   0.6749240   0.8371510   0.1729160  )
       195        Ga     tau( 195) = (   0.8433390   0.6670090   0.1685770  )
       196        Ga     tau( 196) = (   0.8366670   0.8355120  -0.0005180  )
       197        Sb     tau( 197) = (   0.7550430   0.7506170   0.0859980  )
       198        As     tau( 198) = (   0.7532290   0.9135710   0.2561110  )
       199        As     tau( 199) = (   0.9160220   0.7524890   0.2504250  )
       200        Sb     tau( 200) = (   0.9179720   0.9180370   0.0874300  )
       201        Ga     tau( 201) = (   0.6742250   0.6745860   0.3390020  )
       202        Ga     tau( 202) = (   0.6722010   0.8371350   0.4957920  )
       203        Ga     tau( 203) = (   0.8297070   0.6747410   0.4957140  )
       204        Ga     tau( 204) = (   0.8368450   0.8341630   0.3340940  )
       205        As     tau( 205) = (   0.7537450   0.7573090   0.4159150  )
       206        As     tau( 206) = (   0.7515640   0.9155510   0.5775870  )
       207        Sb     tau( 207) = (   0.9178030   0.7541300   0.5816850  )
       208        As     tau( 208) = (   0.9173300   0.9155830   0.4174370  )
       209        Ga     tau( 209) = (   0.6620430   0.6614720   0.6691970  )
       210        Ga     tau( 210) = (   0.6673200   0.8337050   0.8325810  )
       211        Ga     tau( 211) = (   0.8356470   0.6678800   0.8326090  )
       212        Ga     tau( 212) = (   0.8278570   0.8369670   0.6603170  )
       213        Sb     tau( 213) = (   0.7493630   0.7492520   0.7474080  )
       214        Sb     tau( 214) = (   0.7520190   0.9178690   0.9156810  )
       215        Sb     tau( 215) = (   0.9212170   0.7494820   0.9178900  )
       216        Sb     tau( 216) = (   0.9183360   0.9143460   0.7463570  )

     number of k points=     8
                       cart. coord. in units 2pi/alat
        k(    1) = (   0.0000000   0.0000000   0.0000000), wk =   0.2500000
        k(    2) = (   0.0000000   0.0000000  -0.5000000), wk =   0.2500000
        k(    3) = (   0.0000000  -0.5000000  -0.5000000), wk =   0.2500000
        k(    4) = (  -0.5000000  -0.5000000  -0.5000000), wk =   0.2500000
        k(    5) = (  -0.5000000   0.0000000   0.0000000), wk =   0.2500000
        k(    6) = (   0.0000000  -0.5000000   0.0000000), wk =   0.2500000
        k(    7) = (  -0.5000000   0.0000000   0.5000000), wk =   0.2500000
        k(    8) = (  -0.5000000   0.5000000   0.0000000), wk =   0.2500000

     Dense  grid:  7000505 G-vectors     FFT dimensions: ( 240, 240, 240)

     Estimated max dynamical RAM per process >       2.70 GB

     Estimated total dynamical RAM >    1716.05 GB

     Initial potential from superposition of free atoms

     starting charge    3023.6593, renormalised to    3024.0000

     STARTING HUBBARD OCCUPATIONS:

     =================== HUBBARD OCCUPATIONS ===================
     ------------------------ ATOM    1 ------------------------
     Tr[ns(  1)] =   1.00000
     eigenvalues:
       0.167  0.167  0.167
     eigenvectors (columns):
       1.000  0.000  0.000
       0.000  1.000  0.000
       0.000  0.000  1.000
     occupation matrix ns (before diag.):
       0.167  0.000  0.000
       0.000  0.167  0.000
       0.000  0.000  0.167
     ------------------------ ATOM    2 ------------------------
     Tr[ns(  2)] =   1.00000
     eigenvalues:
       0.167  0.167  0.167
     eigenvectors (columns):
       1.000  0.000  0.000
       0.000  1.000  0.000
       0.000  0.000  1.000
     occupation matrix ns (before diag.):
       0.167  0.000  0.000
       0.000  0.167  0.000
       0.000  0.000  0.167
     ------------------------ ATOM    3 ------------------------
     Tr[ns(  3)] =   1.00000
     eigenvalues:
       0.167  0.167  0.167
     eigenvectors (columns):
       1.000  0.000  0.000
       0.000  1.000  0.000
       0.000  0.000  1.000
     occupation matrix ns (before diag.):
       0.167  0.000  0.000
       0.000  0.167  0.000
       0.000  0.000  0.167
     ------------------------ ATOM    4 ------------------------
     Tr[ns(  4)] =   1.00000
     eigenvalues:
       0.167  0.167  0.167
     eigenvectors (columns):
       1.000  0.000  0.000
       0.000  1.000  0.000
       0.000  0.000  1.000
     occupation matrix ns (before diag.):
       0.167  0.000  0.000
       0.000  0.167  0.000
       0.000  0.000  0.167
     ------------------------ ATOM    5 ------------------------
     Tr[ns(  5)] =   3.00000
     eigenvalues:
       0.500  0.500  0.500
     eigenvectors (columns):
       1.000  0.000  0.000
       0.000  1.000  0.000
       0.000  0.000  1.000
     occupation matrix ns (before diag.):
       0.500  0.000  0.000
       0.000  0.500  0.000
       0.000  0.000  0.500
     ------------------------ ATOM    6 ------------------------
     Tr[ns(  6)] =   3.00000
     eigenvalues:
       0.500  0.500  0.500
     eigenvectors (columns):
       1.000  0.000  0.000
       0.000  1.000  0.000
       0.000  0.000  1.000
     occupation matrix ns (before diag.):
       0.500  0.000  0.000
       0.000  0.500  0.000
       0.000  0.000  0.500
     ------------------------ ATOM    7 ------------------------
     Tr[ns(  7)] =   3.00000
     eigenvalues:
       0.500  0.500  0.500
     eigenvectors (columns):
       1.000  0.000  0.000
       0.000  1.000  0.000
       0.000  0.000  1.000
     occupation matrix ns (before diag.):
       0.500  0.000  0.000
       0.000  0.500  0.000
       0.000  0.000  0.500
     ------------------------ ATOM    8 ------------------------
     Tr[ns(  8)] =   3.00000
     eigenvalues:
       0.500  0.500  0.500
     eigenvectors (columns):
       1.000  0.000  0.000
       0.000  1.000  0.000
       0.000  0.000  1.000
     occupation matrix ns (before diag.):
       0.500  0.000  0.000
       0.000  0.500  0.000
       0.000  0.000  0.500
     ------------------------ ATOM    9 ------------------------
     Tr[ns(  9)] =   1.00000
     eigenvalues:
       0.167  0.167  0.167
     eigenvectors (columns):
       1.000  0.000  0.000
       0.000  1.000  0.000
       0.000  0.000  1.000
     occupation matrix ns (before diag.):
       0.167  0.000  0.000
       0.000  0.167  0.000
       0.000  0.000  0.167
     ------------------------ ATOM   10 ------------------------
     Tr[ns( 10)] =   1.00000
     eigenvalues:
       0.167  0.167  0.167
     eigenvectors (columns):
       1.000  0.000  0.000
       0.000  1.000  0.000
       0.000  0.000  1.000
     occupation matrix ns (before diag.):
       0.167  0.000  0.000
       0.000  0.167  0.000
       0.000  0.000  0.167
     ------------------------ ATOM   11 ------------------------
     Tr[ns( 11)] =   1.00000
     eigenvalues:
       0.167  0.167  0.167
     eigenvectors (columns):
       1.000  0.000  0.000
       0.000  1.000  0.000
       0.000  0.000  1.000
     occupation matrix ns (before diag.):
       0.167  0.000  0.000
       0.000  0.167  0.000
       0.000  0.000  0.167
     ------------------------ ATOM   12 ------------------------
     Tr[ns( 12)] =   1.00000
     eigenvalues:
       0.167  0.167  0.167
     eigenvectors (columns):
       1.000  0.000  0.000
       0.000  1.000  0.000
       0.000  0.000  1.000
     occupation matrix ns (before diag.):
       0.167  0.000  0.000
       0.000  0.167  0.000
       0.000  0.000  0.167
     ------------------------ ATOM   13 ------------------------
     Tr[ns( 13)] =   3.00000
     eigenvalues:
       0.500  0.500  0.500
     eigenvectors (columns):
       1.000  0.000  0.000
       0.000  1.000  0.000
       0.000  0.000  1.000
     occupation matrix ns (before diag.):
       0.500  0.000  0.000
       0.000  0.500  0.000
       0.000  0.000  0.500
     ------------------------ ATOM   14 ------------------------
     Tr[ns( 14)] =   3.00000
     eigenvalues:
       0.500  0.500  0.500
     eigenvectors (columns):
       1.000  0.000  0.000
       0.000  1.000  0.000
       0.000  0.000  1.000
     occupation matrix ns (before diag.):
       0.500  0.000  0.000
       0.000  0.500  0.000
       0.000  0.000  0.500
     ------------------------ ATOM   15 ------------------------
     Tr[ns( 15)] =   3.00000
     eigenvalues:
       0.500  0.500  0.500
     eigenvectors (columns):
       1.000  0.000  0.000
       0.000  1.000  0.000
       0.000  0.000  1.000
     occupation matrix ns (before diag.):
       0.500  0.000  0.000
       0.000  0.500  0.000
       0.000  0.000  0.500
     ------------------------ ATOM   16 ------------------------
     Tr[ns( 16)] =   3.00000
     eigenvalues:
       0.500  0.500  0.500
     eigenvectors (columns):
       1.000  0.000  0.000
       0.000  1.000  0.000
       0.000  0.000  1.000
     occupation matrix ns (before diag.):
       0.500  0.000  0.000
       0.000  0.500  0.000
       0.000  0.000  0.500
     ------------------------ ATOM   17 ------------------------
     Tr[ns( 17)] =   1.00000
     eigenvalues:
       0.167  0.167  0.167
     eigenvectors (columns):
       1.000  0.000  0.000
       0.000  1.000  0.000
       0.000  0.000  1.000
     occupation matrix ns (before diag.):
       0.167  0.000  0.000
       0.000  0.167  0.000
       0.000  0.000  0.167
     ------------------------ ATOM   18 ------------------------
     Tr[ns( 18)] =   1.00000
     eigenvalues:
       0.167  0.167  0.167
     eigenvectors (columns):
       1.000  0.000  0.000
       0.000  1.000  0.000
       0.000  0.000  1.000
     occupation matrix ns (before diag.):
       0.167  0.000  0.000
       0.000  0.167  0.000
       0.000  0.000  0.167
     ------------------------ ATOM   19 ------------------------
     Tr[ns( 19)] =   1.00000
     eigenvalues:
       0.167  0.167  0.167
     eigenvectors (columns):
       1.000  0.000  0.000
       0.000  1.000  0.000
       0.000  0.000  1.000
     occupation matrix ns (before diag.):
       0.167  0.000  0.000
       0.000  0.167  0.000
       0.000  0.000  0.167
     ------------------------ ATOM   20 ------------------------
     Tr[ns( 20)] =   1.00000
     eigenvalues:
       0.167  0.167  0.167
     eigenvectors (columns):
       1.000  0.000  0.000
       0.000  1.000  0.000
       0.000  0.000  1.000
     occupation matrix ns (before diag.):
       0.167  0.000  0.000
       0.000  0.167  0.000
       0.000  0.000  0.167
     ------------------------ ATOM   21 ------------------------
     Tr[ns( 21)] =   3.00000
     eigenvalues:
       0.500  0.500  0.500
     eigenvectors (columns):
       1.000  0.000  0.000
       0.000  1.000  0.000
       0.000  0.000  1.000
     occupation matrix ns (before diag.):
       0.500  0.000  0.000
       0.000  0.500  0.000
       0.000  0.000  0.500
     ------------------------ ATOM   22 ------------------------
     Tr[ns( 22)] =   3.00000
     eigenvalues:
       0.500  0.500  0.500
     eigenvectors (columns):
       1.000  0.000  0.000
       0.000  1.000  0.000
       0.000  0.000  1.000
     occupation matrix ns (before diag.):
       0.500  0.000  0.000
       0.000  0.500  0.000
       0.000  0.000  0.500
     ------------------------ ATOM   23 ------------------------
     Tr[ns( 23)] =   3.00000
     eigenvalues:
       0.500  0.500  0.500
     eigenvectors (columns):
       1.000  0.000  0.000
       0.000  1.000  0.000
       0.000  0.000  1.000
     occupation matrix ns (before diag.):
       0.500  0.000  0.000
       0.000  0.500  0.000
       0.000  0.000  0.500
     ------------------------ ATOM   24 ------------------------
     Tr[ns( 24)] =   3.00000
     eigenvalues:
       0.500  0.500  0.500
     eigenvectors (columns):
       1.000  0.000  0.000
       0.000  1.000  0.000
       0.000  0.000  1.000
     occupation matrix ns (before diag.):
       0.500  0.000  0.000
       0.000  0.500  0.000
       0.000  0.000  0.500
     ------------------------ ATOM   25 ------------------------
     Tr[ns( 25)] =   1.00000
     eigenvalues:
       0.167  0.167  0.167
     eigenvectors (columns):
       1.000  0.000  0.000
       0.000  1.000  0.000
       0.000  0.000  1.000
     occupation matrix ns (before diag.):
       0.167  0.000  0.000
       0.000  0.167  0.000
       0.000  0.000  0.167
     ------------------------ ATOM   26 ------------------------
     Tr[ns( 26)] =   1.00000
     eigenvalues:
       0.167  0.167  0.167
     eigenvectors (columns):
       1.000  0.000  0.000
       0.000  1.000  0.000
       0.000  0.000  1.000
     occupation matrix ns (before diag.):
       0.167  0.000  0.000
       0.000  0.167  0.000
       0.000  0.000  0.167
     ------------------------ ATOM   27 ------------------------
     Tr[ns( 27)] =   1.00000
     eigenvalues:
       0.167  0.167  0.167
     eigenvectors (columns):
       1.000  0.000  0.000
       0.000  1.000  0.000
       0.000  0.000  1.000
     occupation matrix ns (before diag.):
       0.167  0.000  0.000
       0.000  0.167  0.000
       0.000  0.000  0.167
     ------------------------ ATOM   28 ------------------------
     Tr[ns( 28)] =   1.00000
     eigenvalues:
       0.167  0.167  0.167
     eigenvectors (columns):
       1.000  0.000  0.000
       0.000  1.000  0.000
       0.000  0.000  1.000
     occupation matrix ns (before diag.):
       0.167  0.000  0.000
       0.000  0.167  0.000
       0.000  0.000  0.167
     ------------------------ ATOM   29 ------------------------
     Tr[ns( 29)] =   3.00000
     eigenvalues:
       0.500  0.500  0.500
     eigenvectors (columns):
       1.000  0.000  0.000
       0.000  1.000  0.000
       0.000  0.000  1.000
     occupation matrix ns (before diag.):
       0.500  0.000  0.000
       0.000  0.500  0.000
       0.000  0.000  0.500
     ------------------------ ATOM   30 ------------------------
     Tr[ns( 30)] =   3.00000
     eigenvalues:
       0.500  0.500  0.500
     eigenvectors (columns):
       1.000  0.000  0.000
       0.000  1.000  0.000
       0.000  0.000  1.000
     occupation matrix ns (before diag.):
       0.500  0.000  0.000
       0.000  0.500  0.000
       0.000  0.000  0.500
     ------------------------ ATOM   31 ------------------------
     Tr[ns( 31)] =   3.00000
     eigenvalues:
       0.500  0.500  0.500
     eigenvectors (columns):
       1.000  0.000  0.000
       0.000  1.000  0.000
       0.000  0.000  1.000
     occupation matrix ns (before diag.):
       0.500  0.000  0.000
       0.000  0.500  0.000
       0.000  0.000  0.500
     ------------------------ ATOM   32 ------------------------
     Tr[ns( 32)] =   3.00000
     eigenvalues:
       0.500  0.500  0.500
     eigenvectors (columns):
       1.000  0.000  0.000
       0.000  1.000  0.000
       0.000  0.000  1.000
     occupation matrix ns (before diag.):
       0.500  0.000  0.000
       0.000  0.500  0.000
       0.000  0.000  0.500
     ------------------------ ATOM   33 ------------------------
     Tr[ns( 33)] =   1.00000
     eigenvalues:
       0.167  0.167  0.167
     eigenvectors (columns):
       1.000  0.000  0.000
       0.000  1.000  0.000
       0.000  0.000  1.000
     occupation matrix ns (before diag.):
       0.167  0.000  0.000
       0.000  0.167  0.000
       0.000  0.000  0.167
     ------------------------ ATOM   34 ------------------------
     Tr[ns( 34)] =   1.00000
     eigenvalues:
       0.167  0.167  0.167
     eigenvectors (columns):
       1.000  0.000  0.000
       0.000  1.000  0.000
       0.000  0.000  1.000
     occupation matrix ns (before diag.):
       0.167  0.000  0.000
       0.000  0.167  0.000
       0.000  0.000  0.167
     ------------------------ ATOM   35 ------------------------
     Tr[ns( 35)] =   1.00000
     eigenvalues:
       0.167  0.167  0.167
     eigenvectors (columns):
       1.000  0.000  0.000
       0.000  1.000  0.000
       0.000  0.000  1.000
     occupation matrix ns (before diag.):
       0.167  0.000  0.000
       0.000  0.167  0.000
       0.000  0.000  0.167
     ------------------------ ATOM   36 ------------------------
     Tr[ns( 36)] =   1.00000
     eigenvalues:
       0.167  0.167  0.167
     eigenvectors (columns):
       1.000  0.000  0.000
       0.000  1.000  0.000
       0.000  0.000  1.000
     occupation matrix ns (before diag.):
       0.167  0.000  0.000
       0.000  0.167  0.000
       0.000  0.000  0.167
     ------------------------ ATOM   37 ------------------------
     Tr[ns( 37)] =   3.00000
     eigenvalues:
       0.500  0.500  0.500
     eigenvectors (columns):
       1.000  0.000  0.000
       0.000  1.000  0.000
       0.000  0.000  1.000
     occupation matrix ns (before diag.):
       0.500  0.000  0.000
       0.000  0.500  0.000
       0.000  0.000  0.500
     ------------------------ ATOM   38 ------------------------
     Tr[ns( 38)] =   3.00000
     eigenvalues:
       0.500  0.500  0.500
     eigenvectors (columns):
       1.000  0.000  0.000
       0.000  1.000  0.000
       0.000  0.000  1.000
     occupation matrix ns (before diag.):
       0.500  0.000  0.000
       0.000  0.500  0.000
       0.000  0.000  0.500
     ------------------------ ATOM   39 ------------------------
     Tr[ns( 39)] =   3.00000
     eigenvalues:
       0.500  0.500  0.500
     eigenvectors (columns):
       1.000  0.000  0.000
       0.000  1.000  0.000
       0.000  0.000  1.000
     occupation matrix ns (before diag.):
       0.500  0.000  0.000
       0.000  0.500  0.000
       0.000  0.000  0.500
     ------------------------ ATOM   40 ------------------------
     Tr[ns( 40)] =   3.00000
     eigenvalues:
       0.500  0.500  0.500
     eigenvectors (columns):
       1.000  0.000  0.000
       0.000  1.000  0.000
       0.000  0.000  1.000
     occupation matrix ns (before diag.):
       0.500  0.000  0.000
       0.000  0.500  0.000
       0.000  0.000  0.500
     ------------------------ ATOM   41 ------------------------
     Tr[ns( 41)] =   1.00000
     eigenvalues:
       0.167  0.167  0.167
     eigenvectors (columns):
       1.000  0.000  0.000
       0.000  1.000  0.000
       0.000  0.000  1.000
     occupation matrix ns (before diag.):
       0.167  0.000  0.000
       0.000  0.167  0.000
       0.000  0.000  0.167
     ------------------------ ATOM   42 ------------------------
     Tr[ns( 42)] =   1.00000
     eigenvalues:
       0.167  0.167  0.167
     eigenvectors (columns):
       1.000  0.000  0.000
       0.000  1.000  0.000
       0.000  0.000  1.000
     occupation matrix ns (before diag.):
       0.167  0.000  0.000
       0.000  0.167  0.000
       0.000  0.000  0.167
     ------------------------ ATOM   43 ------------------------
     Tr[ns( 43)] =   1.00000
     eigenvalues:
       0.167  0.167  0.167
     eigenvectors (columns):
       1.000  0.000  0.000
       0.000  1.000  0.000
       0.000  0.000  1.000
     occupation matrix ns (before diag.):
       0.167  0.000  0.000
       0.000  0.167  0.000
       0.000  0.000  0.167
     ------------------------ ATOM   44 ------------------------
     Tr[ns( 44)] =   1.00000
     eigenvalues:
       0.167  0.167  0.167
     eigenvectors (columns):
       1.000  0.000  0.000
       0.000  1.000  0.000
       0.000  0.000  1.000
     occupation matrix ns (before diag.):
       0.167  0.000  0.000
       0.000  0.167  0.000
       0.000  0.000  0.167
     ------------------------ ATOM   45 ------------------------
     Tr[ns( 45)] =   3.00000
     eigenvalues:
       0.500  0.500  0.500
     eigenvectors (columns):
       1.000  0.000  0.000
       0.000  1.000  0.000
       0.000  0.000  1.000
     occupation matrix ns (before diag.):
       0.500  0.000  0.000
       0.000  0.500  0.000
       0.000  0.000  0.500
     ------------------------ ATOM   46 ------------------------
     Tr[ns( 46)] =   3.00000
     eigenvalues:
       0.500  0.500  0.500
     eigenvectors (columns):
       1.000  0.000  0.000
       0.000  1.000  0.000
       0.000  0.000  1.000
     occupation matrix ns (before diag.):
       0.500  0.000  0.000
       0.000  0.500  0.000
       0.000  0.000  0.500
     ------------------------ ATOM   47 ------------------------
     Tr[ns( 47)] =   3.00000
     eigenvalues:
       0.500  0.500  0.500
     eigenvectors (columns):
       1.000  0.000  0.000
       0.000  1.000  0.000
       0.000  0.000  1.000
     occupation matrix ns (before diag.):
       0.500  0.000  0.000
       0.000  0.500  0.000
       0.000  0.000  0.500
     ------------------------ ATOM   48 ------------------------
     Tr[ns( 48)] =   3.00000
     eigenvalues:
       0.500  0.500  0.500
     eigenvectors (columns):
       1.000  0.000  0.000
       0.000  1.000  0.000
       0.000  0.000  1.000
     occupation matrix ns (before diag.):
       0.500  0.000  0.000
       0.000  0.500  0.000
       0.000  0.000  0.500
     ------------------------ ATOM   49 ------------------------
     Tr[ns( 49)] =   1.00000
     eigenvalues:
       0.167  0.167  0.167
     eigenvectors (columns):
       1.000  0.000  0.000
       0.000  1.000  0.000
       0.000  0.000  1.000
     occupation matrix ns (before diag.):
       0.167  0.000  0.000
       0.000  0.167  0.000
       0.000  0.000  0.167
     ------------------------ ATOM   50 ------------------------
     Tr[ns( 50)] =   1.00000
     eigenvalues:
       0.167  0.167  0.167
     eigenvectors (columns):
       1.000  0.000  0.000
       0.000  1.000  0.000
       0.000  0.000  1.000
     occupation matrix ns (before diag.):
       0.167  0.000  0.000
       0.000  0.167  0.000
       0.000  0.000  0.167
     ------------------------ ATOM   51 ------------------------
     Tr[ns( 51)] =   1.00000
     eigenvalues:
       0.167  0.167  0.167
     eigenvectors (columns):
       1.000  0.000  0.000
       0.000  1.000  0.000
       0.000  0.000  1.000
     occupation matrix ns (before diag.):
       0.167  0.000  0.000
       0.000  0.167  0.000
       0.000  0.000  0.167
     ------------------------ ATOM   52 ------------------------
     Tr[ns( 52)] =   1.00000
     eigenvalues:
       0.167  0.167  0.167
     eigenvectors (columns):
       1.000  0.000  0.000
       0.000  1.000  0.000
       0.000  0.000  1.000
     occupation matrix ns (before diag.):
       0.167  0.000  0.000
       0.000  0.167  0.000
       0.000  0.000  0.167
     ------------------------ ATOM   53 ------------------------
     Tr[ns( 53)] =   3.00000
     eigenvalues:
       0.500  0.500  0.500
     eigenvectors (columns):
       1.000  0.000  0.000
       0.000  1.000  0.000
       0.000  0.000  1.000
     occupation matrix ns (before diag.):
       0.500  0.000  0.000
       0.000  0.500  0.000
       0.000  0.000  0.500
     ------------------------ ATOM   54 ------------------------
     Tr[ns( 54)] =   3.00000
     eigenvalues:
       0.500  0.500  0.500
     eigenvectors (columns):
       1.000  0.000  0.000
       0.000  1.000  0.000
       0.000  0.000  1.000
     occupation matrix ns (before diag.):
       0.500  0.000  0.000
       0.000  0.500  0.000
       0.000  0.000  0.500
     ------------------------ ATOM   55 ------------------------
     Tr[ns( 55)] =   3.00000
     eigenvalues:
       0.500  0.500  0.500
     eigenvectors (columns):
       1.000  0.000  0.000
       0.000  1.000  0.000
       0.000  0.000  1.000
     occupation matrix ns (before diag.):
       0.500  0.000  0.000
       0.000  0.500  0.000
       0.000  0.000  0.500
     ------------------------ ATOM   56 ------------------------
     Tr[ns( 56)] =   3.00000
     eigenvalues:
       0.500  0.500  0.500
     eigenvectors (columns):
       1.000  0.000  0.000
       0.000  1.000  0.000
       0.000  0.000  1.000
     occupation matrix ns (before diag.):
       0.500  0.000  0.000
       0.000  0.500  0.000
       0.000  0.000  0.500
     ------------------------ ATOM   57 ------------------------
     Tr[ns( 57)] =   1.00000
     eigenvalues:
       0.167  0.167  0.167
     eigenvectors (columns):
       1.000  0.000  0.000
       0.000  1.000  0.000
       0.000  0.000  1.000
     occupation matrix ns (before diag.):
       0.167  0.000  0.000
       0.000  0.167  0.000
       0.000  0.000  0.167
     ------------------------ ATOM   58 ------------------------
     Tr[ns( 58)] =   1.00000
     eigenvalues:
       0.167  0.167  0.167
     eigenvectors (columns):
       1.000  0.000  0.000
       0.000  1.000  0.000
       0.000  0.000  1.000
     occupation matrix ns (before diag.):
       0.167  0.000  0.000
       0.000  0.167  0.000
       0.000  0.000  0.167
     ------------------------ ATOM   59 ------------------------
     Tr[ns( 59)] =   1.00000
     eigenvalues:
       0.167  0.167  0.167
     eigenvectors (columns):
       1.000  0.000  0.000
       0.000  1.000  0.000
       0.000  0.000  1.000
     occupation matrix ns (before diag.):
       0.167  0.000  0.000
       0.000  0.167  0.000
       0.000  0.000  0.167
     ------------------------ ATOM   60 ------------------------
     Tr[ns( 60)] =   1.00000
     eigenvalues:
       0.167  0.167  0.167
     eigenvectors (columns):
       1.000  0.000  0.000
       0.000  1.000  0.000
       0.000  0.000  1.000
     occupation matrix ns (before diag.):
       0.167  0.000  0.000
       0.000  0.167  0.000
       0.000  0.000  0.167
     ------------------------ ATOM   61 ------------------------
     Tr[ns( 61)] =   3.00000
     eigenvalues:
       0.500  0.500  0.500
     eigenvectors (columns):
       1.000  0.000  0.000
       0.000  1.000  0.000
       0.000  0.000  1.000
     occupation matrix ns (before diag.):
       0.500  0.000  0.000
       0.000  0.500  0.000
       0.000  0.000  0.500
     ------------------------ ATOM   62 ------------------------
     Tr[ns( 62)] =   3.00000
     eigenvalues:
       0.500  0.500  0.500
     eigenvectors (columns):
       1.000  0.000  0.000
       0.000  1.000  0.000
       0.000  0.000  1.000
     occupation matrix ns (before diag.):
       0.500  0.000  0.000
       0.000  0.500  0.000
       0.000  0.000  0.500
     ------------------------ ATOM   63 ------------------------
     Tr[ns( 63)] =   3.00000
     eigenvalues:
       0.500  0.500  0.500
     eigenvectors (columns):
       1.000  0.000  0.000
       0.000  1.000  0.000
       0.000  0.000  1.000
     occupation matrix ns (before diag.):
       0.500  0.000  0.000
       0.000  0.500  0.000
       0.000  0.000  0.500
     ------------------------ ATOM   64 ------------------------
     Tr[ns( 64)] =   3.00000
     eigenvalues:
       0.500  0.500  0.500
     eigenvectors (columns):
       1.000  0.000  0.000
       0.000  1.000  0.000
       0.000  0.000  1.000
     occupation matrix ns (before diag.):
       0.500  0.000  0.000
       0.000  0.500  0.000
       0.000  0.000  0.500
     ------------------------ ATOM   65 ------------------------
     Tr[ns( 65)] =   1.00000
     eigenvalues:
       0.167  0.167  0.167
     eigenvectors (columns):
       1.000  0.000  0.000
       0.000  1.000  0.000
       0.000  0.000  1.000
     occupation matrix ns (before diag.):
       0.167  0.000  0.000
       0.000  0.167  0.000
       0.000  0.000  0.167
     ------------------------ ATOM   66 ------------------------
     Tr[ns( 66)] =   1.00000
     eigenvalues:
       0.167  0.167  0.167
     eigenvectors (columns):
       1.000  0.000  0.000
       0.000  1.000  0.000
       0.000  0.000  1.000
     occupation matrix ns (before diag.):
       0.167  0.000  0.000
       0.000  0.167  0.000
       0.000  0.000  0.167
     ------------------------ ATOM   67 ------------------------
     Tr[ns( 67)] =   1.00000
     eigenvalues:
       0.167  0.167  0.167
     eigenvectors (columns):
       1.000  0.000  0.000
       0.000  1.000  0.000
       0.000  0.000  1.000
     occupation matrix ns (before diag.):
       0.167  0.000  0.000
       0.000  0.167  0.000
       0.000  0.000  0.167
     ------------------------ ATOM   68 ------------------------
     Tr[ns( 68)] =   1.00000
     eigenvalues:
       0.167  0.167  0.167
     eigenvectors (columns):
       1.000  0.000  0.000
       0.000  1.000  0.000
       0.000  0.000  1.000
     occupation matrix ns (before diag.):
       0.167  0.000  0.000
       0.000  0.167  0.000
       0.000  0.000  0.167
     ------------------------ ATOM   69 ------------------------
     Tr[ns( 69)] =   3.00000
     eigenvalues:
       0.500  0.500  0.500
     eigenvectors (columns):
       1.000  0.000  0.000
       0.000  1.000  0.000
       0.000  0.000  1.000
     occupation matrix ns (before diag.):
       0.500  0.000  0.000
       0.000  0.500  0.000
       0.000  0.000  0.500
     ------------------------ ATOM   70 ------------------------
     Tr[ns( 70)] =   3.00000
     eigenvalues:
       0.500  0.500  0.500
     eigenvectors (columns):
       1.000  0.000  0.000
       0.000  1.000  0.000
       0.000  0.000  1.000
     occupation matrix ns (before diag.):
       0.500  0.000  0.000
       0.000  0.500  0.000
       0.000  0.000  0.500
     ------------------------ ATOM   71 ------------------------
     Tr[ns( 71)] =   3.00000
     eigenvalues:
       0.500  0.500  0.500
     eigenvectors (columns):
       1.000  0.000  0.000
       0.000  1.000  0.000
       0.000  0.000  1.000
     occupation matrix ns (before diag.):
       0.500  0.000  0.000
       0.000  0.500  0.000
       0.000  0.000  0.500
     ------------------------ ATOM   72 ------------------------
     Tr[ns( 72)] =   3.00000
     eigenvalues:
       0.500  0.500  0.500
     eigenvectors (columns):
       1.000  0.000  0.000
       0.000  1.000  0.000
       0.000  0.000  1.000
     occupation matrix ns (before diag.):
       0.500  0.000  0.000
       0.000  0.500  0.000
       0.000  0.000  0.500
     ------------------------ ATOM   73 ------------------------
     Tr[ns( 73)] =   1.00000
     eigenvalues:
       0.167  0.167  0.167
     eigenvectors (columns):
       1.000  0.000  0.000
       0.000  1.000  0.000
       0.000  0.000  1.000
     occupation matrix ns (before diag.):
       0.167  0.000  0.000
       0.000  0.167  0.000
       0.000  0.000  0.167
     ------------------------ ATOM   74 ------------------------
     Tr[ns( 74)] =   1.00000
     eigenvalues:
       0.167  0.167  0.167
     eigenvectors (columns):
       1.000  0.000  0.000
       0.000  1.000  0.000
       0.000  0.000  1.000
     occupation matrix ns (before diag.):
       0.167  0.000  0.000
       0.000  0.167  0.000
       0.000  0.000  0.167
     ------------------------ ATOM   75 ------------------------
     Tr[ns( 75)] =   1.00000
     eigenvalues:
       0.167  0.167  0.167
     eigenvectors (columns):
       1.000  0.000  0.000
       0.000  1.000  0.000
       0.000  0.000  1.000
     occupation matrix ns (before diag.):
       0.167  0.000  0.000
       0.000  0.167  0.000
       0.000  0.000  0.167
     ------------------------ ATOM   76 ------------------------
     Tr[ns( 76)] =   1.00000
     eigenvalues:
       0.167  0.167  0.167
     eigenvectors (columns):
       1.000  0.000  0.000
       0.000  1.000  0.000
       0.000  0.000  1.000
     occupation matrix ns (before diag.):
       0.167  0.000  0.000
       0.000  0.167  0.000
       0.000  0.000  0.167
     ------------------------ ATOM   77 ------------------------
     Tr[ns( 77)] =   3.00000
     eigenvalues:
       0.500  0.500  0.500
     eigenvectors (columns):
       1.000  0.000  0.000
       0.000  1.000  0.000
       0.000  0.000  1.000
     occupation matrix ns (before diag.):
       0.500  0.000  0.000
       0.000  0.500  0.000
       0.000  0.000  0.500
     ------------------------ ATOM   78 ------------------------
     Tr[ns( 78)] =   3.00000
     eigenvalues:
       0.500  0.500  0.500
     eigenvectors (columns):
       1.000  0.000  0.000
       0.000  1.000  0.000
       0.000  0.000  1.000
     occupation matrix ns (before diag.):
       0.500  0.000  0.000
       0.000  0.500  0.000
       0.000  0.000  0.500
     ------------------------ ATOM   79 ------------------------
     Tr[ns( 79)] =   3.00000
     eigenvalues:
       0.500  0.500  0.500
     eigenvectors (columns):
       1.000  0.000  0.000
       0.000  1.000  0.000
       0.000  0.000  1.000
     occupation matrix ns (before diag.):
       0.500  0.000  0.000
       0.000  0.500  0.000
       0.000  0.000  0.500
     ------------------------ ATOM   80 ------------------------
     Tr[ns( 80)] =   3.00000
     eigenvalues:
       0.500  0.500  0.500
     eigenvectors (columns):
       1.000  0.000  0.000
       0.000  1.000  0.000
       0.000  0.000  1.000
     occupation matrix ns (before diag.):
       0.500  0.000  0.000
       0.000  0.500  0.000
       0.000  0.000  0.500
     ------------------------ ATOM   81 ------------------------
     Tr[ns( 81)] =   1.00000
     eigenvalues:
       0.167  0.167  0.167
     eigenvectors (columns):
       1.000  0.000  0.000
       0.000  1.000  0.000
       0.000  0.000  1.000
     occupation matrix ns (before diag.):
       0.167  0.000  0.000
       0.000  0.167  0.000
       0.000  0.000  0.167
     ------------------------ ATOM   82 ------------------------
     Tr[ns( 82)] =   1.00000
     eigenvalues:
       0.167  0.167  0.167
     eigenvectors (columns):
       1.000  0.000  0.000
       0.000  1.000  0.000
       0.000  0.000  1.000
     occupation matrix ns (before diag.):
       0.167  0.000  0.000
       0.000  0.167  0.000
       0.000  0.000  0.167
     ------------------------ ATOM   83 ------------------------
     Tr[ns( 83)] =   1.00000
     eigenvalues:
       0.167  0.167  0.167
     eigenvectors (columns):
       1.000  0.000  0.000
       0.000  1.000  0.000
       0.000  0.000  1.000
     occupation matrix ns (before diag.):
       0.167  0.000  0.000
       0.000  0.167  0.000
       0.000  0.000  0.167
     ------------------------ ATOM   84 ------------------------
     Tr[ns( 84)] =   1.00000
     eigenvalues:
       0.167  0.167  0.167
     eigenvectors (columns):
       1.000  0.000  0.000
       0.000  1.000  0.000
       0.000  0.000  1.000
     occupation matrix ns (before diag.):
       0.167  0.000  0.000
       0.000  0.167  0.000
       0.000  0.000  0.167
     ------------------------ ATOM   85 ------------------------
     Tr[ns( 85)] =   3.00000
     eigenvalues:
       0.500  0.500  0.500
     eigenvectors (columns):
       1.000  0.000  0.000
       0.000  1.000  0.000
       0.000  0.000  1.000
     occupation matrix ns (before diag.):
       0.500  0.000  0.000
       0.000  0.500  0.000
       0.000  0.000  0.500
     ------------------------ ATOM   86 ------------------------
     Tr[ns( 86)] =   3.00000
     eigenvalues:
       0.500  0.500  0.500
     eigenvectors (columns):
       1.000  0.000  0.000
       0.000  1.000  0.000
       0.000  0.000  1.000
     occupation matrix ns (before diag.):
       0.500  0.000  0.000
       0.000  0.500  0.000
       0.000  0.000  0.500
     ------------------------ ATOM   87 ------------------------
     Tr[ns( 87)] =   3.00000
     eigenvalues:
       0.500  0.500  0.500
     eigenvectors (columns):
       1.000  0.000  0.000
       0.000  1.000  0.000
       0.000  0.000  1.000
     occupation matrix ns (before diag.):
       0.500  0.000  0.000
       0.000  0.500  0.000
       0.000  0.000  0.500
     ------------------------ ATOM   88 ------------------------
     Tr[ns( 88)] =   3.00000
     eigenvalues:
       0.500  0.500  0.500
     eigenvectors (columns):
       1.000  0.000  0.000
       0.000  1.000  0.000
       0.000  0.000  1.000
     occupation matrix ns (before diag.):
       0.500  0.000  0.000
       0.000  0.500  0.000
       0.000  0.000  0.500
     ------------------------ ATOM   89 ------------------------
     Tr[ns( 89)] =   1.00000
     eigenvalues:
       0.167  0.167  0.167
     eigenvectors (columns):
       1.000  0.000  0.000
       0.000  1.000  0.000
       0.000  0.000  1.000
     occupation matrix ns (before diag.):
       0.167  0.000  0.000
       0.000  0.167  0.000
       0.000  0.000  0.167
     ------------------------ ATOM   90 ------------------------
     Tr[ns( 90)] =   1.00000
     eigenvalues:
       0.167  0.167  0.167
     eigenvectors (columns):
       1.000  0.000  0.000
       0.000  1.000  0.000
       0.000  0.000  1.000
     occupation matrix ns (before diag.):
       0.167  0.000  0.000
       0.000  0.167  0.000
       0.000  0.000  0.167
     ------------------------ ATOM   91 ------------------------
     Tr[ns( 91)] =   1.00000
     eigenvalues:
       0.167  0.167  0.167
     eigenvectors (columns):
       1.000  0.000  0.000
       0.000  1.000  0.000
       0.000  0.000  1.000
     occupation matrix ns (before diag.):
       0.167  0.000  0.000
       0.000  0.167  0.000
       0.000  0.000  0.167
     ------------------------ ATOM   92 ------------------------
     Tr[ns( 92)] =   1.00000
     eigenvalues:
       0.167  0.167  0.167
     eigenvectors (columns):
       1.000  0.000  0.000
       0.000  1.000  0.000
       0.000  0.000  1.000
     occupation matrix ns (before diag.):
       0.167  0.000  0.000
       0.000  0.167  0.000
       0.000  0.000  0.167
     ------------------------ ATOM   93 ------------------------
     Tr[ns( 93)] =   3.00000
     eigenvalues:
       0.500  0.500  0.500
     eigenvectors (columns):
       1.000  0.000  0.000
       0.000  1.000  0.000
       0.000  0.000  1.000
     occupation matrix ns (before diag.):
       0.500  0.000  0.000
       0.000  0.500  0.000
       0.000  0.000  0.500
     ------------------------ ATOM   94 ------------------------
     Tr[ns( 94)] =   3.00000
     eigenvalues:
       0.500  0.500  0.500
     eigenvectors (columns):
       1.000  0.000  0.000
       0.000  1.000  0.000
       0.000  0.000  1.000
     occupation matrix ns (before diag.):
       0.500  0.000  0.000
       0.000  0.500  0.000
       0.000  0.000  0.500
     ------------------------ ATOM   95 ------------------------
     Tr[ns( 95)] =   3.00000
     eigenvalues:
       0.500  0.500  0.500
     eigenvectors (columns):
       1.000  0.000  0.000
       0.000  1.000  0.000
       0.000  0.000  1.000
     occupation matrix ns (before diag.):
       0.500  0.000  0.000
       0.000  0.500  0.000
       0.000  0.000  0.500
     ------------------------ ATOM   96 ------------------------
     Tr[ns( 96)] =   3.00000
     eigenvalues:
       0.500  0.500  0.500
     eigenvectors (columns):
       1.000  0.000  0.000
       0.000  1.000  0.000
       0.000  0.000  1.000
     occupation matrix ns (before diag.):
       0.500  0.000  0.000
       0.000  0.500  0.000
       0.000  0.000  0.500
     ------------------------ ATOM   97 ------------------------
     Tr[ns( 97)] =   1.00000
     eigenvalues:
       0.167  0.167  0.167
     eigenvectors (columns):
       1.000  0.000  0.000
       0.000  1.000  0.000
       0.000  0.000  1.000
     occupation matrix ns (before diag.):
       0.167  0.000  0.000
       0.000  0.167  0.000
       0.000  0.000  0.167
     ------------------------ ATOM   98 ------------------------
     Tr[ns( 98)] =   1.00000
     eigenvalues:
       0.167  0.167  0.167
     eigenvectors (columns):
       1.000  0.000  0.000
       0.000  1.000  0.000
       0.000  0.000  1.000
     occupation matrix ns (before diag.):
       0.167  0.000  0.000
       0.000  0.167  0.000
       0.000  0.000  0.167
     ------------------------ ATOM   99 ------------------------
     Tr[ns( 99)] =   1.00000
     eigenvalues:
       0.167  0.167  0.167
     eigenvectors (columns):
       1.000  0.000  0.000
       0.000  1.000  0.000
       0.000  0.000  1.000
     occupation matrix ns (before diag.):
       0.167  0.000  0.000
       0.000  0.167  0.000
       0.000  0.000  0.167
     ------------------------ ATOM  100 ------------------------
     Tr[ns(100)] =   1.00000
     eigenvalues:
       0.167  0.167  0.167
     eigenvectors (columns):
       1.000  0.000  0.000
       0.000  1.000  0.000
       0.000  0.000  1.000
     occupation matrix ns (before diag.):
       0.167  0.000  0.000
       0.000  0.167  0.000
       0.000  0.000  0.167
     ------------------------ ATOM  101 ------------------------
     Tr[ns(101)] =   3.00000
     eigenvalues:
       0.500  0.500  0.500
     eigenvectors (columns):
       1.000  0.000  0.000
       0.000  1.000  0.000
       0.000  0.000  1.000
     occupation matrix ns (before diag.):
       0.500  0.000  0.000
       0.000  0.500  0.000
       0.000  0.000  0.500
     ------------------------ ATOM  102 ------------------------
     Tr[ns(102)] =   3.00000
     eigenvalues:
       0.500  0.500  0.500
     eigenvectors (columns):
       1.000  0.000  0.000
       0.000  1.000  0.000
       0.000  0.000  1.000
     occupation matrix ns (before diag.):
       0.500  0.000  0.000
       0.000  0.500  0.000
       0.000  0.000  0.500
     ------------------------ ATOM  103 ------------------------
     Tr[ns(103)] =   3.00000
     eigenvalues:
       0.500  0.500  0.500
     eigenvectors (columns):
       1.000  0.000  0.000
       0.000  1.000  0.000
       0.000  0.000  1.000
     occupation matrix ns (before diag.):
       0.500  0.000  0.000
       0.000  0.500  0.000
       0.000  0.000  0.500
     ------------------------ ATOM  104 ------------------------
     Tr[ns(104)] =   3.00000
     eigenvalues:
       0.500  0.500  0.500
     eigenvectors (columns):
       1.000  0.000  0.000
       0.000  1.000  0.000
       0.000  0.000  1.000
     occupation matrix ns (before diag.):
       0.500  0.000  0.000
       0.000  0.500  0.000
       0.000  0.000  0.500
     ------------------------ ATOM  105 ------------------------
     Tr[ns(105)] =   1.00000
     eigenvalues:
       0.167  0.167  0.167
     eigenvectors (columns):
       1.000  0.000  0.000
       0.000  1.000  0.000
       0.000  0.000  1.000
     occupation matrix ns (before diag.):
       0.167  0.000  0.000
       0.000  0.167  0.000
       0.000  0.000  0.167
     ------------------------ ATOM  106 ------------------------
     Tr[ns(106)] =   1.00000
     eigenvalues:
       0.167  0.167  0.167
     eigenvectors (columns):
       1.000  0.000  0.000
       0.000  1.000  0.000
       0.000  0.000  1.000
     occupation matrix ns (before diag.):
       0.167  0.000  0.000
       0.000  0.167  0.000
       0.000  0.000  0.167
     ------------------------ ATOM  107 ------------------------
     Tr[ns(107)] =   1.00000
     eigenvalues:
       0.167  0.167  0.167
     eigenvectors (columns):
       1.000  0.000  0.000
       0.000  1.000  0.000
       0.000  0.000  1.000
     occupation matrix ns (before diag.):
       0.167  0.000  0.000
       0.000  0.167  0.000
       0.000  0.000  0.167
     ------------------------ ATOM  108 ------------------------
     Tr[ns(108)] =   1.00000
     eigenvalues:
       0.167  0.167  0.167
     eigenvectors (columns):
       1.000  0.000  0.000
       0.000  1.000  0.000
       0.000  0.000  1.000
     occupation matrix ns (before diag.):
       0.167  0.000  0.000
       0.000  0.167  0.000
       0.000  0.000  0.167
     ------------------------ ATOM  109 ------------------------
     Tr[ns(109)] =   3.00000
     eigenvalues:
       0.500  0.500  0.500
     eigenvectors (columns):
       1.000  0.000  0.000
       0.000  1.000  0.000
       0.000  0.000  1.000
     occupation matrix ns (before diag.):
       0.500  0.000  0.000
       0.000  0.500  0.000
       0.000  0.000  0.500
     ------------------------ ATOM  110 ------------------------
     Tr[ns(110)] =   3.00000
     eigenvalues:
       0.500  0.500  0.500
     eigenvectors (columns):
       1.000  0.000  0.000
       0.000  1.000  0.000
       0.000  0.000  1.000
     occupation matrix ns (before diag.):
       0.500  0.000  0.000
       0.000  0.500  0.000
       0.000  0.000  0.500
     ------------------------ ATOM  111 ------------------------
     Tr[ns(111)] =   3.00000
     eigenvalues:
       0.500  0.500  0.500
     eigenvectors (columns):
       1.000  0.000  0.000
       0.000  1.000  0.000
       0.000  0.000  1.000
     occupation matrix ns (before diag.):
       0.500  0.000  0.000
       0.000  0.500  0.000
       0.000  0.000  0.500
     ------------------------ ATOM  112 ------------------------
     Tr[ns(112)] =   3.00000
     eigenvalues:
       0.500  0.500  0.500
     eigenvectors (columns):
       1.000  0.000  0.000
       0.000  1.000  0.000
       0.000  0.000  1.000
     occupation matrix ns (before diag.):
       0.500  0.000  0.000
       0.000  0.500  0.000
       0.000  0.000  0.500
     ------------------------ ATOM  113 ------------------------
     Tr[ns(113)] =   1.00000
     eigenvalues:
       0.167  0.167  0.167
     eigenvectors (columns):
       1.000  0.000  0.000
       0.000  1.000  0.000
       0.000  0.000  1.000
     occupation matrix ns (before diag.):
       0.167  0.000  0.000
       0.000  0.167  0.000
       0.000  0.000  0.167
     ------------------------ ATOM  114 ------------------------
     Tr[ns(114)] =   1.00000
     eigenvalues:
       0.167  0.167  0.167
     eigenvectors (columns):
       1.000  0.000  0.000
       0.000  1.000  0.000
       0.000  0.000  1.000
     occupation matrix ns (before diag.):
       0.167  0.000  0.000
       0.000  0.167  0.000
       0.000  0.000  0.167
     ------------------------ ATOM  115 ------------------------
     Tr[ns(115)] =   1.00000
     eigenvalues:
       0.167  0.167  0.167
     eigenvectors (columns):
       1.000  0.000  0.000
       0.000  1.000  0.000
       0.000  0.000  1.000
     occupation matrix ns (before diag.):
       0.167  0.000  0.000
       0.000  0.167  0.000
       0.000  0.000  0.167
     ------------------------ ATOM  116 ------------------------
     Tr[ns(116)] =   1.00000
     eigenvalues:
       0.167  0.167  0.167
     eigenvectors (columns):
       1.000  0.000  0.000
       0.000  1.000  0.000
       0.000  0.000  1.000
     occupation matrix ns (before diag.):
       0.167  0.000  0.000
       0.000  0.167  0.000
       0.000  0.000  0.167
     ------------------------ ATOM  117 ------------------------
     Tr[ns(117)] =   3.00000
     eigenvalues:
       0.500  0.500  0.500
     eigenvectors (columns):
       1.000  0.000  0.000
       0.000  1.000  0.000
       0.000  0.000  1.000
     occupation matrix ns (before diag.):
       0.500  0.000  0.000
       0.000  0.500  0.000
       0.000  0.000  0.500
     ------------------------ ATOM  118 ------------------------
     Tr[ns(118)] =   3.00000
     eigenvalues:
       0.500  0.500  0.500
     eigenvectors (columns):
       1.000  0.000  0.000
       0.000  1.000  0.000
       0.000  0.000  1.000
     occupation matrix ns (before diag.):
       0.500  0.000  0.000
       0.000  0.500  0.000
       0.000  0.000  0.500
     ------------------------ ATOM  119 ------------------------
     Tr[ns(119)] =   3.00000
     eigenvalues:
       0.500  0.500  0.500
     eigenvectors (columns):
       1.000  0.000  0.000
       0.000  1.000  0.000
       0.000  0.000  1.000
     occupation matrix ns (before diag.):
       0.500  0.000  0.000
       0.000  0.500  0.000
       0.000  0.000  0.500
     ------------------------ ATOM  120 ------------------------
     Tr[ns(120)] =   3.00000
     eigenvalues:
       0.500  0.500  0.500
     eigenvectors (columns):
       1.000  0.000  0.000
       0.000  1.000  0.000
       0.000  0.000  1.000
     occupation matrix ns (before diag.):
       0.500  0.000  0.000
       0.000  0.500  0.000
       0.000  0.000  0.500
     ------------------------ ATOM  121 ------------------------
     Tr[ns(121)] =   1.00000
     eigenvalues:
       0.167  0.167  0.167
     eigenvectors (columns):
       1.000  0.000  0.000
       0.000  1.000  0.000
       0.000  0.000  1.000
     occupation matrix ns (before diag.):
       0.167  0.000  0.000
       0.000  0.167  0.000
       0.000  0.000  0.167
     ------------------------ ATOM  122 ------------------------
     Tr[ns(122)] =   1.00000
     eigenvalues:
       0.167  0.167  0.167
     eigenvectors (columns):
       1.000  0.000  0.000
       0.000  1.000  0.000
       0.000  0.000  1.000
     occupation matrix ns (before diag.):
       0.167  0.000  0.000
       0.000  0.167  0.000
       0.000  0.000  0.167
     ------------------------ ATOM  123 ------------------------
     Tr[ns(123)] =   1.00000
     eigenvalues:
       0.167  0.167  0.167
     eigenvectors (columns):
       1.000  0.000  0.000
       0.000  1.000  0.000
       0.000  0.000  1.000
     occupation matrix ns (before diag.):
       0.167  0.000  0.000
       0.000  0.167  0.000
       0.000  0.000  0.167
     ------------------------ ATOM  124 ------------------------
     Tr[ns(124)] =   1.00000
     eigenvalues:
       0.167  0.167  0.167
     eigenvectors (columns):
       1.000  0.000  0.000
       0.000  1.000  0.000
       0.000  0.000  1.000
     occupation matrix ns (before diag.):
       0.167  0.000  0.000
       0.000  0.167  0.000
       0.000  0.000  0.167
     ------------------------ ATOM  125 ------------------------
     Tr[ns(125)] =   3.00000
     eigenvalues:
       0.500  0.500  0.500
     eigenvectors (columns):
       1.000  0.000  0.000
       0.000  1.000  0.000
       0.000  0.000  1.000
     occupation matrix ns (before diag.):
       0.500  0.000  0.000
       0.000  0.500  0.000
       0.000  0.000  0.500
     ------------------------ ATOM  126 ------------------------
     Tr[ns(126)] =   3.00000
     eigenvalues:
       0.500  0.500  0.500
     eigenvectors (columns):
       1.000  0.000  0.000
       0.000  1.000  0.000
       0.000  0.000  1.000
     occupation matrix ns (before diag.):
       0.500  0.000  0.000
       0.000  0.500  0.000
       0.000  0.000  0.500
     ------------------------ ATOM  127 ------------------------
     Tr[ns(127)] =   3.00000
     eigenvalues:
       0.500  0.500  0.500
     eigenvectors (columns):
       1.000  0.000  0.000
       0.000  1.000  0.000
       0.000  0.000  1.000
     occupation matrix ns (before diag.):
       0.500  0.000  0.000
       0.000  0.500  0.000
       0.000  0.000  0.500
     ------------------------ ATOM  128 ------------------------
     Tr[ns(128)] =   3.00000
     eigenvalues:
       0.500  0.500  0.500
     eigenvectors (columns):
       1.000  0.000  0.000
       0.000  1.000  0.000
       0.000  0.000  1.000
     occupation matrix ns (before diag.):
       0.500  0.000  0.000
       0.000  0.500  0.000
       0.000  0.000  0.500
     ------------------------ ATOM  129 ------------------------
     Tr[ns(129)] =   1.00000
     eigenvalues:
       0.167  0.167  0.167
     eigenvectors (columns):
       1.000  0.000  0.000
       0.000  1.000  0.000
       0.000  0.000  1.000
     occupation matrix ns (before diag.):
       0.167  0.000  0.000
       0.000  0.167  0.000
       0.000  0.000  0.167
     ------------------------ ATOM  130 ------------------------
     Tr[ns(130)] =   1.00000
     eigenvalues:
       0.167  0.167  0.167
     eigenvectors (columns):
       1.000  0.000  0.000
       0.000  1.000  0.000
       0.000  0.000  1.000
     occupation matrix ns (before diag.):
       0.167  0.000  0.000
       0.000  0.167  0.000
       0.000  0.000  0.167
     ------------------------ ATOM  131 ------------------------
     Tr[ns(131)] =   1.00000
     eigenvalues:
       0.167  0.167  0.167
     eigenvectors (columns):
       1.000  0.000  0.000
       0.000  1.000  0.000
       0.000  0.000  1.000
     occupation matrix ns (before diag.):
       0.167  0.000  0.000
       0.000  0.167  0.000
       0.000  0.000  0.167
     ------------------------ ATOM  132 ------------------------
     Tr[ns(132)] =   1.00000
     eigenvalues:
       0.167  0.167  0.167
     eigenvectors (columns):
       1.000  0.000  0.000
       0.000  1.000  0.000
       0.000  0.000  1.000
     occupation matrix ns (before diag.):
       0.167  0.000  0.000
       0.000  0.167  0.000
       0.000  0.000  0.167
     ------------------------ ATOM  133 ------------------------
     Tr[ns(133)] =   3.00000
     eigenvalues:
       0.500  0.500  0.500
     eigenvectors (columns):
       1.000  0.000  0.000
       0.000  1.000  0.000
       0.000  0.000  1.000
     occupation matrix ns (before diag.):
       0.500  0.000  0.000
       0.000  0.500  0.000
       0.000  0.000  0.500
     ------------------------ ATOM  134 ------------------------
     Tr[ns(134)] =   3.00000
     eigenvalues:
       0.500  0.500  0.500
     eigenvectors (columns):
       1.000  0.000  0.000
       0.000  1.000  0.000
       0.000  0.000  1.000
     occupation matrix ns (before diag.):
       0.500  0.000  0.000
       0.000  0.500  0.000
       0.000  0.000  0.500
     ------------------------ ATOM  135 ------------------------
     Tr[ns(135)] =   3.00000
     eigenvalues:
       0.500  0.500  0.500
     eigenvectors (columns):
       1.000  0.000  0.000
       0.000  1.000  0.000
       0.000  0.000  1.000
     occupation matrix ns (before diag.):
       0.500  0.000  0.000
       0.000  0.500  0.000
       0.000  0.000  0.500
     ------------------------ ATOM  136 ------------------------
     Tr[ns(136)] =   3.00000
     eigenvalues:
       0.500  0.500  0.500
     eigenvectors (columns):
       1.000  0.000  0.000
       0.000  1.000  0.000
       0.000  0.000  1.000
     occupation matrix ns (before diag.):
       0.500  0.000  0.000
       0.000  0.500  0.000
       0.000  0.000  0.500
     ------------------------ ATOM  137 ------------------------
     Tr[ns(137)] =   1.00000
     eigenvalues:
       0.167  0.167  0.167
     eigenvectors (columns):
       1.000  0.000  0.000
       0.000  1.000  0.000
       0.000  0.000  1.000
     occupation matrix ns (before diag.):
       0.167  0.000  0.000
       0.000  0.167  0.000
       0.000  0.000  0.167
     ------------------------ ATOM  138 ------------------------
     Tr[ns(138)] =   1.00000
     eigenvalues:
       0.167  0.167  0.167
     eigenvectors (columns):
       1.000  0.000  0.000
       0.000  1.000  0.000
       0.000  0.000  1.000
     occupation matrix ns (before diag.):
       0.167  0.000  0.000
       0.000  0.167  0.000
       0.000  0.000  0.167
     ------------------------ ATOM  139 ------------------------
     Tr[ns(139)] =   1.00000
     eigenvalues:
       0.167  0.167  0.167
     eigenvectors (columns):
       1.000  0.000  0.000
       0.000  1.000  0.000
       0.000  0.000  1.000
     occupation matrix ns (before diag.):
       0.167  0.000  0.000
       0.000  0.167  0.000
       0.000  0.000  0.167
     ------------------------ ATOM  140 ------------------------
     Tr[ns(140)] =   1.00000
     eigenvalues:
       0.167  0.167  0.167
     eigenvectors (columns):
       1.000  0.000  0.000
       0.000  1.000  0.000
       0.000  0.000  1.000
     occupation matrix ns (before diag.):
       0.167  0.000  0.000
       0.000  0.167  0.000
       0.000  0.000  0.167
     ------------------------ ATOM  141 ------------------------
     Tr[ns(141)] =   3.00000
     eigenvalues:
       0.500  0.500  0.500
     eigenvectors (columns):
       1.000  0.000  0.000
       0.000  1.000  0.000
       0.000  0.000  1.000
     occupation matrix ns (before diag.):
       0.500  0.000  0.000
       0.000  0.500  0.000
       0.000  0.000  0.500
     ------------------------ ATOM  142 ------------------------
     Tr[ns(142)] =   3.00000
     eigenvalues:
       0.500  0.500  0.500
     eigenvectors (columns):
       1.000  0.000  0.000
       0.000  1.000  0.000
       0.000  0.000  1.000
     occupation matrix ns (before diag.):
       0.500  0.000  0.000
       0.000  0.500  0.000
       0.000  0.000  0.500
     ------------------------ ATOM  143 ------------------------
     Tr[ns(143)] =   3.00000
     eigenvalues:
       0.500  0.500  0.500
     eigenvectors (columns):
       1.000  0.000  0.000
       0.000  1.000  0.000
       0.000  0.000  1.000
     occupation matrix ns (before diag.):
       0.500  0.000  0.000
       0.000  0.500  0.000
       0.000  0.000  0.500
     ------------------------ ATOM  144 ------------------------
     Tr[ns(144)] =   3.00000
     eigenvalues:
       0.500  0.500  0.500
     eigenvectors (columns):
       1.000  0.000  0.000
       0.000  1.000  0.000
       0.000  0.000  1.000
     occupation matrix ns (before diag.):
       0.500  0.000  0.000
       0.000  0.500  0.000
       0.000  0.000  0.500
     ------------------------ ATOM  145 ------------------------
     Tr[ns(145)] =   1.00000
     eigenvalues:
       0.167  0.167  0.167
     eigenvectors (columns):
       1.000  0.000  0.000
       0.000  1.000  0.000
       0.000  0.000  1.000
     occupation matrix ns (before diag.):
       0.167  0.000  0.000
       0.000  0.167  0.000
       0.000  0.000  0.167
     ------------------------ ATOM  146 ------------------------
     Tr[ns(146)] =   1.00000
     eigenvalues:
       0.167  0.167  0.167
     eigenvectors (columns):
       1.000  0.000  0.000
       0.000  1.000  0.000
       0.000  0.000  1.000
     occupation matrix ns (before diag.):
       0.167  0.000  0.000
       0.000  0.167  0.000
       0.000  0.000  0.167
     ------------------------ ATOM  147 ------------------------
     Tr[ns(147)] =   1.00000
     eigenvalues:
       0.167  0.167  0.167
     eigenvectors (columns):
       1.000  0.000  0.000
       0.000  1.000  0.000
       0.000  0.000  1.000
     occupation matrix ns (before diag.):
       0.167  0.000  0.000
       0.000  0.167  0.000
       0.000  0.000  0.167
     ------------------------ ATOM  148 ------------------------
     Tr[ns(148)] =   1.00000
     eigenvalues:
       0.167  0.167  0.167
     eigenvectors (columns):
       1.000  0.000  0.000
       0.000  1.000  0.000
       0.000  0.000  1.000
     occupation matrix ns (before diag.):
       0.167  0.000  0.000
       0.000  0.167  0.000
       0.000  0.000  0.167
     ------------------------ ATOM  149 ------------------------
     Tr[ns(149)] =   3.00000
     eigenvalues:
       0.500  0.500  0.500
     eigenvectors (columns):
       1.000  0.000  0.000
       0.000  1.000  0.000
       0.000  0.000  1.000
     occupation matrix ns (before diag.):
       0.500  0.000  0.000
       0.000  0.500  0.000
       0.000  0.000  0.500
     ------------------------ ATOM  150 ------------------------
     Tr[ns(150)] =   3.00000
     eigenvalues:
       0.500  0.500  0.500
     eigenvectors (columns):
       1.000  0.000  0.000
       0.000  1.000  0.000
       0.000  0.000  1.000
     occupation matrix ns (before diag.):
       0.500  0.000  0.000
       0.000  0.500  0.000
       0.000  0.000  0.500
     ------------------------ ATOM  151 ------------------------
     Tr[ns(151)] =   3.00000
     eigenvalues:
       0.500  0.500  0.500
     eigenvectors (columns):
       1.000  0.000  0.000
       0.000  1.000  0.000
       0.000  0.000  1.000
     occupation matrix ns (before diag.):
       0.500  0.000  0.000
       0.000  0.500  0.000
       0.000  0.000  0.500
     ------------------------ ATOM  152 ------------------------
[...]
   -19.7004 -19.7001 -19.7001 -19.6999 -19.6998 -19.6997 -19.6997 -19.6995
   -19.6994 -19.6993 -19.6992 -19.6991 -19.6990 -19.6988 -19.6987 -19.6987
   -19.6984 -19.6983 -19.6980 -19.6979 -19.6978 -19.6978 -19.6977 -19.6977
   -19.6976 -19.6976 -19.6975 -19.6973 -19.6971 -19.6970 -19.6967 -19.6966
   -19.6964 -19.6964 -19.6963 -19.6962 -19.6958 -19.6956 -19.6955 -19.6954
   -19.6954 -19.6953 -19.6951 -19.6947 -19.6946 -19.6944 -19.6943 -19.6943
   -19.6941 -19.6941 -19.6941 -19.6939 -19.6935 -19.6934 -19.6933 -19.6930
   -19.6927 -19.6924 -19.6922 -19.6921 -19.6921 -19.6920 -19.6919 -19.6917
   -19.6917 -19.6916 -19.6915 -19.6914 -19.6913 -19.6911 -19.6910 -19.6909
   -19.6908 -19.6908 -19.6907 -19.6907 -19.6905 -19.6904 -19.6902 -19.6901
   -19.6900 -19.6900 -19.6899 -19.6898 -19.6896 -19.6894 -19.6893 -19.6888
   -19.6887 -19.6886 -19.6885 -19.6884 -19.6883 -19.6877 -19.6875 -19.6873
   -19.6868 -19.6867 -19.6866 -19.6865 -19.6865 -19.6864 -19.6864 -19.6862
   -19.6861 -19.6861 -19.6860 -19.6858 -19.6858 -19.6858 -19.6856 -19.6855
   -19.6854 -19.6853 -19.6852 -19.6851 -19.6850 -19.6849 -19.6849 -19.6847
   -19.6846 -19.6845 -19.6844 -19.6844 -19.6841 -19.6840 -19.6838 -19.6837
   -19.6835 -19.6835 -19.6831 -19.6818 -19.6816 -19.6815 -19.6811 -19.6809
   -19.6806 -19.6804 -19.6803 -19.6800 -19.6799 -19.6797 -19.6796 -19.6794
   -19.6793 -19.6793 -19.6789 -19.6789 -19.6782 -19.6780 -19.6779 -19.6778
   -19.6774 -19.6774 -19.6773 -19.6771 -19.6771 -19.6770 -19.6769 -19.6766
   -19.6756 -19.6755 -19.6749 -19.6745 -19.6744 -19.6740 -19.6734 -19.6733
   -19.6727 -19.6726 -19.6721 -19.6718 -19.6718 -19.6716 -19.6713 -19.6712
   -19.6706 -19.6703 -19.6698 -19.6697 -19.6689 -19.6684 -19.6684 -19.6682
   -19.6666 -19.6652 -19.6649 -19.6647 -19.6645 -19.6641 -19.6640 -19.6635
   -19.6630 -19.6612 -19.6612 -19.6591 -19.6591 -19.6586 -19.6572 -19.6552
   -19.6535 -19.6490 -19.6484 -19.6460  -7.5466  -7.5394  -7.5336  -7.4922
    -7.4884  -7.4715  -7.4644  -7.4565  -7.4401  -7.4395  -7.4361  -7.4358
    -7.4331  -7.4330  -7.4302  -7.4294  -7.4277  -7.4165  -7.4155  -7.4137
    -7.4079  -7.3986  -7.3941  -7.3935  -7.3927  -7.3913  -7.3901  -7.3888
    -7.3885  -7.3871  -7.3859  -7.3858  -7.3844  -7.3831  -7.3827  -7.3823
    -7.3813  -7.3812  -7.3795  -7.3779  -7.3776  -7.3768  -7.3754  -7.3741
    -7.3737  -7.3736  -7.3725  -7.3719  -7.3710  -7.3700  -7.3699  -7.3695
    -7.3690  -7.3686  -7.3683  -7.3676  -7.3671  -7.3664  -7.3658  -7.3633
    -7.3623  -7.3613  -7.3608  -7.3597  -7.3594  -7.3591  -7.3577  -7.3569
    -7.3565  -7.3556  -7.3555  -7.3547  -7.3544  -7.3541  -7.3520  -7.3508
    -7.3500  -7.3495  -7.3483  -7.3481  -7.3475  -7.3470  -7.3469  -7.3461
    -7.3446  -7.3442  -7.3435  -7.3433  -7.3428  -7.3417  -7.3414  -7.3412
    -7.3407  -7.3402  -7.3388  -7.3381  -7.3378  -7.3371  -7.3362  -7.3359
    -7.3353  -7.3351  -7.3348  -7.3340  -7.3333  -7.3331  -7.3330  -7.3322
    -7.3316  -7.3311  -7.3307  -7.3303  -7.3294  -7.3293  -7.3289  -7.3287
    -7.3284  -7.3281  -7.3274  -7.3271  -7.3267  -7.3266  -7.3260  -7.3257
    -7.3253  -7.3253  -7.3246  -7.3242  -7.3240  -7.3237  -7.3229  -7.3226
    -7.3224  -7.3219  -7.3217  -7.3215  -7.3205  -7.3203  -7.3200  -7.3196
    -7.3188  -7.3187  -7.3177  -7.3173  -7.3166  -7.3164  -7.3159  -7.3155
    -7.3150  -7.3134  -7.3131  -7.3127  -7.3119  -7.3117  -7.3112  -7.3111
    -7.3105  -7.3100  -7.3098  -7.3094  -7.3091  -7.3088  -7.3085  -7.3081
    -7.3080  -7.3075  -7.3072  -7.3069  -7.3060  -7.3056  -7.3053  -7.3040
    -7.3036  -7.3034  -7.3031  -7.3028  -7.3022  -7.3020  -7.3017  -7.3013
    -7.3011  -7.3006  -7.2996  -7.2993  -7.2990  -7.2984  -7.2978  -7.2976
    -7.2975  -7.2971  -7.2966  -7.2964  -7.2959  -7.2956  -7.2951  -7.2946
    -7.2945  -7.2940  -7.2939  -7.2936  -7.2935  -7.2931  -7.2929  -7.2927
    -7.2921  -7.2918  -7.2914  -7.2910  -7.2906  -7.2904  -7.2900  -7.2895
    -7.2889  -7.2885  -7.2881  -7.2880  -7.2878  -7.2875  -7.2871  -7.2869
    -7.2868  -7.2864  -7.2860  -7.2858  -7.2855  -7.2853  -7.2850  -7.2849
    -7.2844  -7.2839  -7.2834  -7.2831  -7.2827  -7.2820  -7.2819  -7.2814
    -7.2812  -7.2810  -7.2806  -7.2804  -7.2800  -7.2795  -7.2793  -7.2788
    -7.2784  -7.2781  -7.2779  -7.2776  -7.2768  -7.2767  -7.2764  -7.2758
    -7.2754  -7.2749  -7.2748  -7.2740  -7.2738  -7.2735  -7.2733  -7.2727
    -7.2723  -7.2719  -7.2715  -7.2711  -7.2708  -7.2703  -7.2699  -7.2691
    -7.2688  -7.2683  -7.2679  -7.2677  -7.2671  -7.2666  -7.2661  -7.2654
    -7.2645  -7.2643  -7.2638  -7.2636  -7.2632  -7.2630  -7.2625  -7.2621
    -7.2614  -7.2612  -7.2604  -7.2602  -7.2598  -7.2597  -7.2596  -7.2582
    -7.2575  -7.2573  -7.2566  -7.2556  -7.2552  -7.2551  -7.2546  -7.2539
    -7.2533  -7.2529  -7.2522  -7.2518  -7.2518  -7.2516  -7.2514  -7.2503
    -7.2500  -7.2498  -7.2498  -7.2495  -7.2488  -7.2485  -7.2484  -7.2482
    -7.2480  -7.2468  -7.2463  -7.2457  -7.2454  -7.2451  -7.2447  -7.2442
    -7.2439  -7.2436  -7.2431  -7.2429  -7.2425  -7.2421  -7.2418  -7.2417
    -7.2415  -7.2413  -7.2409  -7.2400  -7.2399  -7.2392  -7.2391  -7.2385
    -7.2384  -7.2380  -7.2377  -7.2376  -7.2372  -7.2366  -7.2362  -7.2358
    -7.2352  -7.2351  -7.2348  -7.2344  -7.2342  -7.2338  -7.2333  -7.2328
    -7.2325  -7.2322  -7.2320  -7.2317  -7.2311  -7.2310  -7.2304  -7.2299
    -7.2295  -7.2292  -7.2288  -7.2284  -7.2281  -7.2277  -7.2274  -7.2273
    -7.2267  -7.2266  -7.2258  -7.2257  -7.2254  -7.2253  -7.2249  -7.2245
    -7.2240  -7.2235  -7.2234  -7.2224  -7.2221  -7.2214  -7.2210  -7.2207
    -7.2202  -7.2200  -7.2197  -7.2190  -7.2189  -7.2187  -7.2177  -7.2173
    -7.2163  -7.2160  -7.2154  -7.2151  -7.2150  -7.2142  -7.2135  -7.2130
    -7.2122  -7.2118  -7.2115  -7.2111  -7.2105  -7.2098  -7.2095  -7.2090
    -7.2083  -7.2079  -7.2075  -7.2070  -7.2066  -7.2063  -7.2062  -7.2060
    -7.2057  -7.2053  -7.2051  -7.2046  -7.2039  -7.2035  -7.2032  -7.2029
    -7.2023  -7.2023  -7.2018  -7.2003  -7.1995  -7.1990  -7.1989  -7.1984
    -7.1980  -7.1977  -7.1974  -7.1969  -7.1966  -7.1962  -7.1954  -7.1952
    -7.1949  -7.1941  -7.1936  -7.1934  -7.1927  -7.1926  -7.1923  -7.1918
    -7.1912  -7.1905  -7.1897  -7.1894  -7.1891  -7.1889  -7.1880  -7.1875
    -7.1870  -7.1867  -7.1865  -7.1858  -7.1857  -7.1856  -7.1845  -7.1841
    -7.1840  -7.1838  -7.1836  -7.1826  -7.1821  -7.1816  -7.1815  -7.1804
    -7.1800  -7.1798  -7.1789  -7.1787  -7.1780  -7.1774  -7.1770  -7.1755
    -7.1737  -7.1734  -7.1731  -7.1726  -7.1719  -7.1718  -7.1714  -7.1707
    -7.1706  -7.1700  -7.1695  -7.1688  -7.1683  -7.1670  -7.1669  -7.1666
    -7.1664  -7.1653  -7.1650  -7.1648  -7.1639  -7.1635  -7.1627  -7.1625
    -7.1612  -7.1606  -7.1591  -7.1588  -7.1583  -7.1581  -7.1558  -7.1552
    -7.1538  -7.1526  -7.1507  -7.1466  -7.1436  -7.1424  -7.1417  -7.1410
    -7.1407  -7.1404  -7.1392  -7.1366  -7.1354  -7.1345  -7.1335  -7.1283
    -7.1273  -7.1230  -7.1220  -7.1199  -7.1153  -7.1150  -7.0781  -7.0769
    -3.4966  -3.4399  -3.3900  -3.3408  -3.2813  -3.2482  -3.2208  -3.1606
    -3.1354  -3.1096  -3.0602  -3.0181  -3.0030  -2.9298  -2.9068  -2.8871
    -2.8272  -2.8213  -2.8044  -2.7626  -2.6911  -2.6807  -2.6671  -2.6133
    -2.5801  -2.5547  -2.5168  -2.5076  -2.5026  -2.4404  -2.4196  -2.3819
    -2.3653  -2.3542  -2.3269  -2.2896  -2.2763  -2.2371  -2.2278  -2.2077
    -2.1699  -2.1321  -2.1134  -2.0921  -2.0680  -2.0426  -2.0286  -2.0255
    -2.0097  -1.9994  -1.9899  -1.9726  -1.9475  -1.9423  -1.9315  -1.9179
    -1.8464  -1.7527  -1.7202  -1.6665  -1.6517  -1.6500  -1.6302  -1.6194
    -1.5975  -1.5905  -1.5615  -1.5440  -1.5107  -1.4911  -1.4741  -1.4561
    -1.4394  -1.4324  -1.4214  -1.4152  -1.3975  -1.3762  -1.3624  -1.3347
    -1.3231  -1.2940  -1.2535  -1.2470  -1.2153  -1.2076  -1.1747  -1.1403
    -1.1254  -1.1132  -1.1020  -1.0912  -1.0878  -1.0388  -1.0298  -1.0266
    -0.9579  -0.8783  -0.8709  -0.8447  -0.8267  -0.8143  -0.7936  -0.7770
    -0.7620  -0.7244  -0.6693  -0.6357  -0.3169  -0.1922  -0.1225  -0.0750
     0.0813   0.1016   0.1226   0.1442   0.1742   0.1949   0.2115   0.2318
     0.2399   0.2695   0.2843   0.2895   0.3163   0.3400   0.3619   0.3943
     0.4274   0.4638   0.4735   0.4934   0.5279   0.5662   0.5809   0.6207
     0.6317   0.6463   0.6603   0.6765   0.6877   0.6896   0.6980   0.7157
     0.7274   0.7352   0.7418   0.7461   0.7620   0.7756   0.7825   0.7950
     0.8004   0.8099   0.8210   0.8278   0.8533   0.8577   0.8632   0.8724
     0.8811   0.9026   0.9170   0.9382   0.9466   0.9581   0.9672   1.0037
     1.4558   1.5236   1.5590   1.5833   1.6463   1.6697   1.6877   1.7308
     1.7446   1.7636   1.7778   1.8107   1.8534   1.8662   1.8747   1.9052
     1.9310   1.9478   1.9689   1.9724   1.9868   2.0012   2.0212   2.0261
     2.0329   2.0600   2.0706   2.1105   2.9108   2.9400   2.9502   2.9725
     3.0090   3.0231   3.0327   3.0548   3.0963   3.1300   3.1353   3.1535
     3.1633   3.1699   3.2016   3.2374   3.3118   3.3302   3.3496   3.3591
     3.3869   3.4011   3.4250   3.4431   3.4647   3.4753   3.4962   3.5037
     3.5177   3.5524   3.5671   3.5783   3.5940   3.6020   3.6197   3.6482
     3.6541   3.6782   3.6851   3.6904   3.7116   3.7228   3.7449   3.7491
     3.7637   3.7739   3.7958   3.8052   3.8117   3.8375   3.8536   3.8602
     3.8669   3.8832   3.8966   3.9061   3.9270   3.9513   3.9537   3.9675
     3.9748   3.9952   4.0076   4.0203   4.1947   4.2343   4.2536   4.2858
     4.3032   4.3520   4.3796   4.3966   4.4100   4.4371   4.4645   4.4779
     4.4852   4.5013   4.5168   4.5253   4.5504   4.5590   4.5787   4.5965
     4.6080   4.6167   4.6370   4.6567   4.6692   4.6869   4.6938   4.7076
     4.7434   4.7532   4.7534   4.7612   4.7912   4.7948   4.8064   4.8287
     4.8384   4.8645   4.8855   4.9192   4.9220   4.9272   4.9455   4.9519
     4.9803   4.9845   4.9897   5.0120   5.0297   5.0442   5.0563   5.0649
     5.0755   5.0901   5.1112   5.1302   5.1307   5.1539   5.1563   5.1732
     5.1850   5.1939   5.2110   5.2189   5.2292   5.2370   5.2568   5.2637
     5.2884   5.3111   5.3149   5.3328   5.3364   5.3622   5.3672   5.3810
     5.3962   5.4014   5.4258   5.4330   5.4404   5.4517   5.4647   5.4780
     5.5012   5.5273   5.5348   5.5389   5.5555   5.5734   5.5947   5.6074
     5.6241   5.6454   5.6595   5.6698   5.6820   5.6993   5.7136   5.7268
     5.7288   5.7519   5.7564   5.7635   5.7931   5.7997   5.8125   5.8422
     5.8570   5.8670   5.8877   5.8952   5.9393   5.9855   6.0002   6.0168
     6.0545   6.0674   6.0837   6.1172   6.1256   6.1288   6.1723   6.1836
     6.1881   6.2102   6.2286   6.2569   6.2723   6.2950   6.3085   6.3212
     6.3290   6.3517   6.3604   6.3880   6.3989   6.4130   6.4252   6.4292
     6.4460   6.4605   6.4731   6.5005   6.5222   6.5342   6.5475   6.5577
     6.5954   6.6099   6.6339   6.6400   6.6570   6.6718   6.6810   6.7090
     6.7107   6.7276   6.7326   6.7600   6.7848   6.7943   6.8177   6.8428
     6.8817   6.9563   6.9978   7.0205   7.4315   7.4788   7.4954   7.5856
     9.0804   9.1505   9.2153   9.2619   9.3067   9.3193   9.3468   9.3848
     9.3932   9.4599   9.4840   9.4908   9.5066   9.5198   9.5273   9.5421
     9.5502   9.5675   9.5728   9.5966   9.6045   9.6073   9.6211   9.6382
     9.6456   9.6578   9.6851   9.6865   9.7100   9.7526   9.7602   9.7785
     9.8194   9.8282   9.8445   9.8565   9.8616   9.8674   9.8802   9.9038
     9.9156   9.9296   9.9414   9.9573   9.9654   9.9818   9.9918   9.9976
    10.0086  10.0169  10.0368  10.0519  10.0574  10.0650  10.0949  10.0964
    10.1193  10.1326  10.1505  10.1661  10.1756  10.1824  10.1954  10.2095
    10.2259  10.2379  10.2502  10.2576  10.2680  10.2700  10.2856  10.3017
    10.3042  10.3113  10.3184  10.3362  10.3452  10.3496  10.3636  10.3779
    10.3965  10.4044  10.4276  10.4371  10.4615  10.4723  10.4769  10.5026
    10.5148  10.5208  10.5298  10.5418  10.5648  10.5732  10.5838  10.5916
    10.5987  10.6002  10.6159  10.6258  10.6350  10.6540  10.6748  10.6838
    10.6927  10.7375  10.7464  10.7688  11.0877  11.0996  11.1323  11.1401
    11.2518  11.2590  11.2801  11.3090  11.3332  11.3477  11.3737  11.3850
    11.4029  11.4186  11.4333  11.4592  11.4629  11.4799  11.4915  11.5024
    11.5191  11.5272  11.5295  11.5518  11.5552  11.5600  11.5748  11.5847
    11.5906  11.5997  11.6052  11.6093  11.6179  11.6224  11.6408  11.6457
    11.6541  11.6631  11.6781  11.6854  11.7026  11.7279  11.7328  11.7582
    11.9003  11.9284  11.9301  11.9334  11.9483  11.9523  11.9659  11.9697
    11.9748  11.9887  11.9932  12.0058  12.0233  12.0338  12.0375  12.0417
    12.1423  12.1697  12.1850  12.1948  12.2076  12.2194  12.2288  12.2421
    12.2472  12.2493  12.2604  12.2651  12.2697  12.2822  12.2884  12.2909
    12.2987  12.3017  12.3083  12.3197  12.3300  12.3333  12.3408  12.3553
    12.3654  12.3723  12.3836  12.3909  12.3984  12.4044  12.4176  12.4266
    12.4411  12.4441  12.4574  12.4592  12.4759  12.4837  12.4877  12.5050
    12.5073  12.5129  12.5234  12.5380  12.5438  12.5528  12.5566  12.5697
    12.5810  12.5911  12.6083  12.6264  12.6302  12.6474  12.6607  12.6886
    12.7173  12.7325  12.7530  12.7698  12.8521  12.8596  12.8807  12.8881
    12.8959  12.9274  12.9339  12.9581  12.9922  13.0061  13.0092  13.0325
    13.0505  13.0533  13.0634  13.0702  13.0794  13.0826  13.0985  13.1127
    13.1194  13.1220  13.1312  13.1385  13.1482  13.1621  13.1650  13.1757
    13.1811  13.1968  13.2001  13.2094  13.2188  13.2277  13.2325  13.2419
    13.2489  13.2532  13.2651  13.2791  13.2866  13.3159  13.3282  13.3428
    13.3602  13.3774  13.3876  13.3953  13.4081  13.4141  13.4256  13.4416
    13.4546  13.4733  13.4817  13.5043  13.5892  13.6136  13.6264  13.6308
    13.6384  13.6483  13.6608  13.6692  13.6729  13.6884  13.6970  13.7122
    13.7177  13.7331  13.7356  13.7424  13.7522  13.7658  13.7832  13.7903
    13.7936  13.7987  13.8026  13.8124  13.8301  13.8365  13.8491  13.8510
    13.8542  13.8628  13.8738  13.8891  13.8938  13.9040  13.9131  13.9187
    13.9250  13.9317  13.9395  13.9560  13.9620  13.9636  13.9809  13.9937
    14.0039  14.0125  14.0200  14.0237  14.0285  14.0379  14.0446  14.0528
    14.0599  14.0656  14.0744  14.0807  14.0890  14.0950  14.1024  14.1115
    14.1166  14.1247  14.1304  14.1444  14.1448  14.1623  14.1694  14.1755
    14.3009  14.3313  14.3647  14.3769  14.4034  14.4362  14.4488  14.4612
    14.5931  14.6237  14.6495  14.6797  14.7148  14.7269  14.7715  14.7863
    14.8734  14.8824  14.8995  14.9074  14.9210  14.9399  14.9453  14.9699
    14.9731  14.9858  14.9907  14.9976  15.0024  15.0288  15.0610  15.0725
    15.1944  15.2422  15.2511  15.2714  15.2862  15.2916  15.3055  15.3177
    15.3255  15.3449  15.3480  15.3611  15.3699  15.3786  15.4008  15.4126
    15.4184  15.4273  15.4406  15.4523  15.4645  15.4748  15.5033  15.5124
    15.5259  15.5278  15.5415  15.5505  15.5589  15.5705  15.5920  15.6015
    15.6171  15.6241  15.6364  15.6511  15.6635  15.6754  15.6860  15.6939
    15.7032  15.7059  15.7149  15.7832  15.8284  15.8411  15.8677  15.8723
    15.8811  15.8913  15.9025  15.9411  15.9511  16.0004  16.0086  16.0353
    16.0431  16.0574  16.0739  16.0985  16.1367  16.1618  16.1646  16.1715
    16.1803  16.1924  16.2104  16.2154  16.2213  16.2294  16.2386  16.2444
    16.2530  16.2628  16.2759  16.2873  16.2920  16.3007  16.3125  16.3292
    16.3362  16.3617  16.3989  16.4099  16.4556  16.4696  16.4900  16.4957
    16.5105  16.5223  16.5337  16.5396  16.5474  16.5595  16.5639  16.5719
    16.5879  16.5962  16.6042  16.6146  16.6266  16.6326  16.6370  16.6524
    16.6573  16.6586  16.6650  16.6733  16.6779  16.6895  16.6941  16.7062
    16.7180  16.7283  16.7387  16.7557  16.7677  16.7727  16.7823  16.7910
    16.8025  16.8086  16.8201  16.8337  16.8428  16.8557  16.8755  16.8810
    16.8941  16.8993  16.9036  16.9248  16.9270  16.9330  16.9556  16.9671
    16.9933  17.0155  17.0181  17.0241  17.0308  17.0359  17.0403  17.0438
    17.0540  17.0677  17.0704  17.0757  17.0961  17.1027  17.1077  17.1203
    17.1231  17.1252  17.1272  17.1360  17.1543  17.1562  17.1675  17.1718
    17.1764  17.1795  17.1869  17.1930  17.2046  17.2179  17.2268  17.2337
    17.2421  17.2439  17.2450  17.2602  17.2668  17.2754  17.2820  17.2942
    17.3680  17.3730  17.3914  17.4130  17.4288  17.4506  17.5223  17.5433
    17.6068  17.6208  17.6390  17.6509  17.6575  17.6792  17.6887  17.6939
    17.7022  17.7112  17.7142  17.7203  17.7277  17.7374  17.7459  17.7628
    17.7681  17.7747  17.7797  17.7874  17.7985  17.8080  17.8126  17.8371
    17.8679  17.8718  17.9107  17.9328  17.9519  17.9577  17.9666  17.9866
    17.9905  18.0118  18.0269  18.0321  18.0530  18.0694  18.0929  18.1084
    18.1149  18.1203  18.1433  18.1490  18.1827  18.1895  18.2089  18.2387
    18.2638  18.2791  18.2929  18.3043  18.3258  18.3629  18.3757  18.3921
    18.4132  18.4334  18.4407  18.4496  18.4519  18.4593  18.4718  18.4732
    18.4757  18.4982  18.5113  18.5202  18.5286  18.5357  18.5396  18.5543
    18.5616  18.5805  18.5950  18.6009  18.6091  18.6149  18.6315  18.6462

     highest occupied, lowest unoccupied level (ev):     7.6301    8.3594

!    total energy              =  -36980.91065087 Ry
     estimated scf accuracy    <       0.00000360 Ry

     The total energy is the sum of the following terms:
     one-electron contribution =  -18758.37562829 Ry
     hartree contribution      =   11371.80330140 Ry
     xc contribution           =   -9493.30416987 Ry
     ewald contribution        =  -20101.75705361 Ry
     Hubbard energy            =       0.72289950 Ry

     convergence has been achieved in  12 iterations

     Writing all to output data dir ./tmp_In0.0Ga1.0As0.25Sb0.75_cube_3x3x3.0/In0.0Ga1.0As0.25Sb0.75_cube_3x3x3.0.save/ :
     XML data file, charge density, pseudopotentials, collected wavefunctions

     init_run     :    239.72s CPU    242.28s WALL (       1 calls)
     electrons    :   9019.83s CPU   9040.97s WALL (       1 calls)

     Called by init_run:
     wfcinit      :    229.34s CPU    231.54s WALL (       1 calls)
     potinit      :      2.06s CPU      2.13s WALL (       1 calls)
     hinit0       :      1.78s CPU      1.81s WALL (       1 calls)

     Called by electrons:
     c_bands      :   8755.03s CPU   8774.81s WALL (      13 calls)
     sum_band     :    259.62s CPU    260.17s WALL (      13 calls)
     v_of_rho     :      3.42s CPU      3.53s WALL (      13 calls)
     mix_rho      :      0.81s CPU      0.82s WALL (      13 calls)

     Called by c_bands:
     init_us_2    :     32.96s CPU     33.48s WALL (      28 calls)
     cegterg      :   8387.06s CPU   8405.51s WALL (      13 calls)

     Called by *egterg:
     cdiaghg      :    750.22s CPU    750.96s WALL (     106 calls)
     h_psi        :   4983.36s CPU   4993.53s WALL (     108 calls)
     g_psi        :      4.34s CPU      4.34s WALL (      94 calls)

     Called by h_psi:
     h_psi:calbec :    886.20s CPU    886.24s WALL (     108 calls)
     vloc_psi     :    653.45s CPU    654.91s WALL (     108 calls)
     add_vuspsi   :    863.98s CPU    866.65s WALL (     108 calls)
     vhpsi        :   2571.38s CPU   2571.51s WALL (     108 calls)

     General routines
     calbec       :   1135.87s CPU   1135.94s WALL (     230 calls)
     fft          :      3.11s CPU      3.23s WALL (     131 calls)
     ffts         :      0.20s CPU      0.20s WALL (      13 calls)
     fftw         :    638.63s CPU    640.21s WALL (  161484 calls)

     Parallel routines

     Hubbard U routines
     new_ns       :     62.63s CPU     62.64s WALL (      13 calls)
     vhpsi        :   2571.38s CPU   2571.51s WALL (     108 calls)

     PWSCF        :      2h34m CPU      2h36m WALL


   This run was terminated on:  17:16:33  12Jun2025            

=------------------------------------------------------------------------------=
   JOB DONE.
=------------------------------------------------------------------------------=
