
     Program PWSCF v.7.3.1 starts on 27Jan2026 at 16:11:48 

     This program is part of the open-source Quantum ESPRESSO suite
     for quantum simulation of materials; please cite
         "P. Giannozzi et al., J. Phys.:Condens. Matter 21 395502 (2009);
         "P. Giannozzi et al., J. Phys.:Condens. Matter 29 465901 (2017);
         "P. Giannozzi et al., J. Chem. Phys. 152 154105 (2020);
          URL http://www.quantum-espresso.org", 
     in publications or presentations arising from this work. More details at
     http://www.quantum-espresso.org/quote

     Parallel version (MPI), running on   512 processors

     MPI processes distributed on     4 nodes
     225760 MiB available memory on the printing compute node when the environment starts

     Reading input from In1.0Ga0.0As0.5Sb0.5_cube_3x3x3.4.relax.in

     Current dimensions of program PWSCF are:
     Max number of different atomic species (ntypx) = 10
     Max number of k-points (npk) =  40000
     Max angular momentum in pseudopotentials (lmaxx) =  4

     gamma-point specific algorithms are used

     R & G space division:  proc/nbgrp/npool/nimage =     512
     WARNING: too many processors for an effective parallelization!
     wavefunctions fft division:  task group distribution
                                  #TG    x Z-proc =      16     32
     Subspace diagonalization in iterative solution of the eigenvalue problem:
     one sub-group per band group will be used
     custom distributed-memory algorithm (size of sub-group: 15* 15 procs)


     Parallelization info
     --------------------
     sticks:   dense  smooth     PW     G-vecs:    dense   smooth      PW
     Min          94      94     22                15934    15934    1958
     Max          96      96     24                15988    15988    2012
     Sum       49049   49049  12281              8176129  8176129 1021717

     Using Pencil Decomposition



     bravais-lattice index     =            1
     lattice parameter (alat)  =      35.8405  a.u.
     unit-cell volume          =   46038.5111 (a.u.)^3
     number of atoms/cell      =          216
     number of atomic types    =            4
     number of electrons       =      3024.00
     number of Kohn-Sham states=         1512
     kinetic-energy cutoff     =     120.0000  Ry
     charge density cutoff     =     480.0000  Ry
     scf convergence threshold =      1.0E-05
     mixing beta               =       0.6500
     number of iterations used =            8  plain     mixing
     energy convergence thresh.=      1.0E-04
     force convergence thresh. =      4.5E-04
     press convergence thresh. =      5.0E-01
     Exchange-correlation= PBE
                           (   1   4   3   4   0   0   0)
     nstep                     =           50

     Hubbard projectors: atomic
     Hubbard parameters of DFT+U (Dudarev formulation) in eV:
     U(As-4p) =  3.2600
     U(Ga-4p) = -2.8000
     U(In-5p) = -1.0150
     U(Sb-5p) =  3.1600

     Internal variables: lda_plus_u =T, lda_plus_u_kind = 0

     celldm(1)=  35.840475  celldm(2)=   0.000000  celldm(3)=   0.000000
     celldm(4)=   0.000000  celldm(5)=   0.000000  celldm(6)=   0.000000

     crystal axes: (cart. coord. in units of alat)
               a(1) = (   1.000000   0.000000   0.000000 )  
               a(2) = (   0.000000   1.000000   0.000000 )  
               a(3) = (   0.000000   0.000000   1.000000 )  

     reciprocal axes: (cart. coord. in units 2 pi/alat)
               b(1) = (  1.000000  0.000000  0.000000 )  
               b(2) = (  0.000000  1.000000  0.000000 )  
               b(3) = (  0.000000  0.000000  1.000000 )  


     PseudoPot. # 1 for As read from file:
     /work/i254/i254/gentles/data/pseudos/As.pbe.NC-SR.standard.v0.5.UPF
     MD5 check sum: bfe1a874457ce592347346129958e7cf
     Pseudo is Norm-conserving + core correction, Zval = 15.0
     Generated using ONCVPSP code by D. R. Hamann
     Using radial grid of 1358 points,  6 beta functions with: 
                l(1) =   0
                l(2) =   0
                l(3) =   1
                l(4) =   1
                l(5) =   2
                l(6) =   2

     PseudoPot. # 2 for Ga read from file:
     /work/i254/i254/gentles/data/pseudos/Ga.pbe.NC-SR.standard.v0.5.UPF
     MD5 check sum: 2bb81bf6f0a8d9832cf3329850435ecf
     Pseudo is Norm-conserving + core correction, Zval = 13.0
     Generated using ONCVPSP code by D. R. Hamann
     Using radial grid of 1902 points,  6 beta functions with: 
                l(1) =   0
                l(2) =   0
                l(3) =   1
                l(4) =   1
                l(5) =   2
                l(6) =   2

     PseudoPot. # 3 for In read from file:
     /work/i254/i254/gentles/data/pseudos/In.pbe.NC-SR.standard.v0.5.UPF
     MD5 check sum: 835f4bf908c982ff75c88e16816a8d7f
     Pseudo is Norm-conserving + core correction, Zval = 13.0
     Generated using ONCVPSP code by D. R. Hamann
     Using radial grid of 1964 points,  6 beta functions with: 
                l(1) =   0
                l(2) =   0
                l(3) =   1
                l(4) =   1
                l(5) =   2
                l(6) =   2

     PseudoPot. # 4 for Sb read from file:
     /work/i254/i254/gentles/data/pseudos/Sb.pbe.NC-SR.standard.v0.5.UPF
     MD5 check sum: 127f69b6101c45666faeae1b5d611565
     Pseudo is Norm-conserving + core correction, Zval = 15.0
     Generated using ONCVPSP code by D. R. Hamann
     Using radial grid of 1434 points,  6 beta functions with: 
                l(1) =   0
                l(2) =   0
                l(3) =   1
                l(4) =   1
                l(5) =   2
                l(6) =   2

     atomic species   valence    mass     pseudopotential
     As               15.00    74.92160     As( 1.00)
     Ga               13.00    69.72300     Ga( 1.00)
     In               13.00   114.81800     In( 1.00)
     Sb               15.00   121.76000     Sb( 1.00)

     No symmetry found



   Cartesian axes

     site n.     atom                  positions (alat units)
         1        In     tau(   1) = (   0.0000000   0.0000000   0.0000000  )
         2        In     tau(   2) = (   0.0000000   0.1666670   0.1666670  )
         3        In     tau(   3) = (   0.1666670   0.0000000   0.1666670  )
         4        In     tau(   4) = (   0.1666670   0.1666670   0.0000000  )
         5        As     tau(   5) = (   0.0833330   0.0833330   0.0833330  )
         6        Sb     tau(   6) = (   0.0833330   0.2500000   0.2500000  )
         7        Sb     tau(   7) = (   0.2500000   0.0833330   0.2500000  )
         8        Sb     tau(   8) = (   0.2500000   0.2500000   0.0833330  )
         9        In     tau(   9) = (   0.0000000   0.0000000   0.3333330  )
        10        In     tau(  10) = (   0.0000000   0.1666670   0.5000000  )
        11        In     tau(  11) = (   0.1666670   0.0000000   0.5000000  )
        12        In     tau(  12) = (   0.1666670   0.1666670   0.3333330  )
        13        As     tau(  13) = (   0.0833330   0.0833330   0.4166670  )
        14        Sb     tau(  14) = (   0.0833330   0.2500000   0.5833330  )
        15        Sb     tau(  15) = (   0.2500000   0.0833330   0.5833330  )
        16        As     tau(  16) = (   0.2500000   0.2500000   0.4166670  )
        17        In     tau(  17) = (   0.0000000   0.0000000   0.6666670  )
        18        In     tau(  18) = (   0.0000000   0.1666670   0.8333330  )
        19        In     tau(  19) = (   0.1666670   0.0000000   0.8333330  )
        20        In     tau(  20) = (   0.1666670   0.1666670   0.6666670  )
        21        Sb     tau(  21) = (   0.0833330   0.0833330   0.7500000  )
        22        As     tau(  22) = (   0.0833330   0.2500000   0.9166670  )
        23        Sb     tau(  23) = (   0.2500000   0.0833330   0.9166670  )
        24        Sb     tau(  24) = (   0.2500000   0.2500000   0.7500000  )
        25        In     tau(  25) = (   0.0000000   0.3333330   0.0000000  )
        26        In     tau(  26) = (   0.0000000   0.5000000   0.1666670  )
        27        In     tau(  27) = (   0.1666670   0.3333330   0.1666670  )
        28        In     tau(  28) = (   0.1666670   0.5000000   0.0000000  )
        29        Sb     tau(  29) = (   0.0833330   0.4166670   0.0833330  )
        30        Sb     tau(  30) = (   0.0833330   0.5833330   0.2500000  )
        31        As     tau(  31) = (   0.2500000   0.4166670   0.2500000  )
        32        As     tau(  32) = (   0.2500000   0.5833330   0.0833330  )
        33        In     tau(  33) = (   0.0000000   0.3333330   0.3333330  )
        34        In     tau(  34) = (   0.0000000   0.5000000   0.5000000  )
        35        In     tau(  35) = (   0.1666670   0.3333330   0.5000000  )
        36        In     tau(  36) = (   0.1666670   0.5000000   0.3333330  )
        37        Sb     tau(  37) = (   0.0833330   0.4166670   0.4166670  )
        38        Sb     tau(  38) = (   0.0833330   0.5833330   0.5833330  )
        39        Sb     tau(  39) = (   0.2500000   0.4166670   0.5833330  )
        40        Sb     tau(  40) = (   0.2500000   0.5833330   0.4166670  )
        41        In     tau(  41) = (   0.0000000   0.3333330   0.6666670  )
        42        In     tau(  42) = (   0.0000000   0.5000000   0.8333330  )
        43        In     tau(  43) = (   0.1666670   0.3333330   0.8333330  )
        44        In     tau(  44) = (   0.1666670   0.5000000   0.6666670  )
        45        As     tau(  45) = (   0.0833330   0.4166670   0.7500000  )
        46        As     tau(  46) = (   0.0833330   0.5833330   0.9166670  )
        47        As     tau(  47) = (   0.2500000   0.4166670   0.9166670  )
        48        Sb     tau(  48) = (   0.2500000   0.5833330   0.7500000  )
        49        In     tau(  49) = (   0.0000000   0.6666670   0.0000000  )
        50        In     tau(  50) = (   0.0000000   0.8333330   0.1666670  )
        51        In     tau(  51) = (   0.1666670   0.6666670   0.1666670  )
        52        In     tau(  52) = (   0.1666670   0.8333330   0.0000000  )
        53        As     tau(  53) = (   0.0833330   0.7500000   0.0833330  )
        54        Sb     tau(  54) = (   0.0833330   0.9166670   0.2500000  )
        55        Sb     tau(  55) = (   0.2500000   0.7500000   0.2500000  )
        56        As     tau(  56) = (   0.2500000   0.9166670   0.0833330  )
        57        In     tau(  57) = (   0.0000000   0.6666670   0.3333330  )
        58        In     tau(  58) = (   0.0000000   0.8333330   0.5000000  )
        59        In     tau(  59) = (   0.1666670   0.6666670   0.5000000  )
        60        In     tau(  60) = (   0.1666670   0.8333330   0.3333330  )
        61        Sb     tau(  61) = (   0.0833330   0.7500000   0.4166670  )
        62        Sb     tau(  62) = (   0.0833330   0.9166670   0.5833330  )
        63        Sb     tau(  63) = (   0.2500000   0.7500000   0.5833330  )
        64        As     tau(  64) = (   0.2500000   0.9166670   0.4166670  )
        65        In     tau(  65) = (   0.0000000   0.6666670   0.6666670  )
        66        In     tau(  66) = (   0.0000000   0.8333330   0.8333330  )
        67        In     tau(  67) = (   0.1666670   0.6666670   0.8333330  )
        68        In     tau(  68) = (   0.1666670   0.8333330   0.6666670  )
        69        Sb     tau(  69) = (   0.0833330   0.7500000   0.7500000  )
        70        As     tau(  70) = (   0.0833330   0.9166670   0.9166670  )
        71        Sb     tau(  71) = (   0.2500000   0.7500000   0.9166670  )
        72        Sb     tau(  72) = (   0.2500000   0.9166670   0.7500000  )
        73        In     tau(  73) = (   0.3333330   0.0000000   0.0000000  )
        74        In     tau(  74) = (   0.3333330   0.1666670   0.1666670  )
        75        In     tau(  75) = (   0.5000000   0.0000000   0.1666670  )
        76        In     tau(  76) = (   0.5000000   0.1666670   0.0000000  )
        77        As     tau(  77) = (   0.4166670   0.0833330   0.0833330  )
        78        As     tau(  78) = (   0.4166670   0.2500000   0.2500000  )
        79        As     tau(  79) = (   0.5833330   0.0833330   0.2500000  )
        80        As     tau(  80) = (   0.5833330   0.2500000   0.0833330  )
        81        In     tau(  81) = (   0.3333330   0.0000000   0.3333330  )
        82        In     tau(  82) = (   0.3333330   0.1666670   0.5000000  )
        83        In     tau(  83) = (   0.5000000   0.0000000   0.5000000  )
        84        In     tau(  84) = (   0.5000000   0.1666670   0.3333330  )
        85        As     tau(  85) = (   0.4166670   0.0833330   0.4166670  )
        86        Sb     tau(  86) = (   0.4166670   0.2500000   0.5833330  )
        87        As     tau(  87) = (   0.5833330   0.0833330   0.5833330  )
        88        Sb     tau(  88) = (   0.5833330   0.2500000   0.4166670  )
        89        In     tau(  89) = (   0.3333330   0.0000000   0.6666670  )
        90        In     tau(  90) = (   0.3333330   0.1666670   0.8333330  )
        91        In     tau(  91) = (   0.5000000   0.0000000   0.8333330  )
        92        In     tau(  92) = (   0.5000000   0.1666670   0.6666670  )
        93        Sb     tau(  93) = (   0.4166670   0.0833330   0.7500000  )
        94        Sb     tau(  94) = (   0.4166670   0.2500000   0.9166670  )
        95        As     tau(  95) = (   0.5833330   0.0833330   0.9166670  )
        96        Sb     tau(  96) = (   0.5833330   0.2500000   0.7500000  )
        97        In     tau(  97) = (   0.3333330   0.3333330   0.0000000  )
        98        In     tau(  98) = (   0.3333330   0.5000000   0.1666670  )
        99        In     tau(  99) = (   0.5000000   0.3333330   0.1666670  )
       100        In     tau( 100) = (   0.5000000   0.5000000   0.0000000  )
       101        Sb     tau( 101) = (   0.4166670   0.4166670   0.0833330  )
       102        As     tau( 102) = (   0.4166670   0.5833330   0.2500000  )
       103        As     tau( 103) = (   0.5833330   0.4166670   0.2500000  )
       104        As     tau( 104) = (   0.5833330   0.5833330   0.0833330  )
       105        In     tau( 105) = (   0.3333330   0.3333330   0.3333330  )
       106        In     tau( 106) = (   0.3333330   0.5000000   0.5000000  )
       107        In     tau( 107) = (   0.5000000   0.3333330   0.5000000  )
       108        In     tau( 108) = (   0.5000000   0.5000000   0.3333330  )
       109        Sb     tau( 109) = (   0.4166670   0.4166670   0.4166670  )
       110        Sb     tau( 110) = (   0.4166670   0.5833330   0.5833330  )
       111        As     tau( 111) = (   0.5833330   0.4166670   0.5833330  )
       112        As     tau( 112) = (   0.5833330   0.5833330   0.4166670  )
       113        In     tau( 113) = (   0.3333330   0.3333330   0.6666670  )
       114        In     tau( 114) = (   0.3333330   0.5000000   0.8333330  )
       115        In     tau( 115) = (   0.5000000   0.3333330   0.8333330  )
       116        In     tau( 116) = (   0.5000000   0.5000000   0.6666670  )
       117        As     tau( 117) = (   0.4166670   0.4166670   0.7500000  )
       118        Sb     tau( 118) = (   0.4166670   0.5833330   0.9166670  )
       119        Sb     tau( 119) = (   0.5833330   0.4166670   0.9166670  )
       120        Sb     tau( 120) = (   0.5833330   0.5833330   0.7500000  )
       121        In     tau( 121) = (   0.3333330   0.6666670   0.0000000  )
       122        In     tau( 122) = (   0.3333330   0.8333330   0.1666670  )
       123        In     tau( 123) = (   0.5000000   0.6666670   0.1666670  )
       124        In     tau( 124) = (   0.5000000   0.8333330   0.0000000  )
       125        As     tau( 125) = (   0.4166670   0.7500000   0.0833330  )
       126        As     tau( 126) = (   0.4166670   0.9166670   0.2500000  )
       127        As     tau( 127) = (   0.5833330   0.7500000   0.2500000  )
       128        As     tau( 128) = (   0.5833330   0.9166670   0.0833330  )
       129        In     tau( 129) = (   0.3333330   0.6666670   0.3333330  )
       130        In     tau( 130) = (   0.3333330   0.8333330   0.5000000  )
       131        In     tau( 131) = (   0.5000000   0.6666670   0.5000000  )
       132        In     tau( 132) = (   0.5000000   0.8333330   0.3333330  )
       133        Sb     tau( 133) = (   0.4166670   0.7500000   0.4166670  )
       134        Sb     tau( 134) = (   0.4166670   0.9166670   0.5833330  )
       135        Sb     tau( 135) = (   0.5833330   0.7500000   0.5833330  )
       136        As     tau( 136) = (   0.5833330   0.9166670   0.4166670  )
       137        In     tau( 137) = (   0.3333330   0.6666670   0.6666670  )
       138        In     tau( 138) = (   0.3333330   0.8333330   0.8333330  )
       139        In     tau( 139) = (   0.5000000   0.6666670   0.8333330  )
       140        In     tau( 140) = (   0.5000000   0.8333330   0.6666670  )
       141        As     tau( 141) = (   0.4166670   0.7500000   0.7500000  )
       142        Sb     tau( 142) = (   0.4166670   0.9166670   0.9166670  )
       143        As     tau( 143) = (   0.5833330   0.7500000   0.9166670  )
       144        Sb     tau( 144) = (   0.5833330   0.9166670   0.7500000  )
       145        In     tau( 145) = (   0.6666670   0.0000000   0.0000000  )
       146        In     tau( 146) = (   0.6666670   0.1666670   0.1666670  )
       147        In     tau( 147) = (   0.8333330   0.0000000   0.1666670  )
       148        In     tau( 148) = (   0.8333330   0.1666670   0.0000000  )
       149        Sb     tau( 149) = (   0.7500000   0.0833330   0.0833330  )
       150        Sb     tau( 150) = (   0.7500000   0.2500000   0.2500000  )
       151        As     tau( 151) = (   0.9166670   0.0833330   0.2500000  )
       152        As     tau( 152) = (   0.9166670   0.2500000   0.0833330  )
       153        In     tau( 153) = (   0.6666670   0.0000000   0.3333330  )
       154        In     tau( 154) = (   0.6666670   0.1666670   0.5000000  )
       155        In     tau( 155) = (   0.8333330   0.0000000   0.5000000  )
       156        In     tau( 156) = (   0.8333330   0.1666670   0.3333330  )
       157        Sb     tau( 157) = (   0.7500000   0.0833330   0.4166670  )
       158        As     tau( 158) = (   0.7500000   0.2500000   0.5833330  )
       159        As     tau( 159) = (   0.9166670   0.0833330   0.5833330  )
       160        As     tau( 160) = (   0.9166670   0.2500000   0.4166670  )
       161        In     tau( 161) = (   0.6666670   0.0000000   0.6666670  )
       162        In     tau( 162) = (   0.6666670   0.1666670   0.8333330  )
       163        In     tau( 163) = (   0.8333330   0.0000000   0.8333330  )
       164        In     tau( 164) = (   0.8333330   0.1666670   0.6666670  )
       165        Sb     tau( 165) = (   0.7500000   0.0833330   0.7500000  )
       166        As     tau( 166) = (   0.7500000   0.2500000   0.9166670  )
       167        Sb     tau( 167) = (   0.9166670   0.0833330   0.9166670  )
       168        As     tau( 168) = (   0.9166670   0.2500000   0.7500000  )
       169        In     tau( 169) = (   0.6666670   0.3333330   0.0000000  )
       170        In     tau( 170) = (   0.6666670   0.5000000   0.1666670  )
       171        In     tau( 171) = (   0.8333330   0.3333330   0.1666670  )
       172        In     tau( 172) = (   0.8333330   0.5000000   0.0000000  )
       173        As     tau( 173) = (   0.7500000   0.4166670   0.0833330  )
       174        Sb     tau( 174) = (   0.7500000   0.5833330   0.2500000  )
       175        As     tau( 175) = (   0.9166670   0.4166670   0.2500000  )
       176        Sb     tau( 176) = (   0.9166670   0.5833330   0.0833330  )
       177        In     tau( 177) = (   0.6666670   0.3333330   0.3333330  )
       178        In     tau( 178) = (   0.6666670   0.5000000   0.5000000  )
       179        In     tau( 179) = (   0.8333330   0.3333330   0.5000000  )
       180        In     tau( 180) = (   0.8333330   0.5000000   0.3333330  )
       181        As     tau( 181) = (   0.7500000   0.4166670   0.4166670  )
       182        Sb     tau( 182) = (   0.7500000   0.5833330   0.5833330  )
       183        As     tau( 183) = (   0.9166670   0.4166670   0.5833330  )
       184        As     tau( 184) = (   0.9166670   0.5833330   0.4166670  )
       185        In     tau( 185) = (   0.6666670   0.3333330   0.6666670  )
       186        In     tau( 186) = (   0.6666670   0.5000000   0.8333330  )
       187        In     tau( 187) = (   0.8333330   0.3333330   0.8333330  )
       188        In     tau( 188) = (   0.8333330   0.5000000   0.6666670  )
       189        As     tau( 189) = (   0.7500000   0.4166670   0.7500000  )
       190        As     tau( 190) = (   0.7500000   0.5833330   0.9166670  )
       191        As     tau( 191) = (   0.9166670   0.4166670   0.9166670  )
       192        Sb     tau( 192) = (   0.9166670   0.5833330   0.7500000  )
       193        In     tau( 193) = (   0.6666670   0.6666670   0.0000000  )
       194        In     tau( 194) = (   0.6666670   0.8333330   0.1666670  )
       195        In     tau( 195) = (   0.8333330   0.6666670   0.1666670  )
       196        In     tau( 196) = (   0.8333330   0.8333330   0.0000000  )
       197        Sb     tau( 197) = (   0.7500000   0.7500000   0.0833330  )
       198        As     tau( 198) = (   0.7500000   0.9166670   0.2500000  )
       199        As     tau( 199) = (   0.9166670   0.7500000   0.2500000  )
       200        Sb     tau( 200) = (   0.9166670   0.9166670   0.0833330  )
       201        In     tau( 201) = (   0.6666670   0.6666670   0.3333330  )
       202        In     tau( 202) = (   0.6666670   0.8333330   0.5000000  )
       203        In     tau( 203) = (   0.8333330   0.6666670   0.5000000  )
       204        In     tau( 204) = (   0.8333330   0.8333330   0.3333330  )
       205        As     tau( 205) = (   0.7500000   0.7500000   0.4166670  )
       206        Sb     tau( 206) = (   0.7500000   0.9166670   0.5833330  )
       207        Sb     tau( 207) = (   0.9166670   0.7500000   0.5833330  )
       208        Sb     tau( 208) = (   0.9166670   0.9166670   0.4166670  )
       209        In     tau( 209) = (   0.6666670   0.6666670   0.6666670  )
       210        In     tau( 210) = (   0.6666670   0.8333330   0.8333330  )
       211        In     tau( 211) = (   0.8333330   0.6666670   0.8333330  )
       212        In     tau( 212) = (   0.8333330   0.8333330   0.6666670  )
       213        As     tau( 213) = (   0.7500000   0.7500000   0.7500000  )
       214        As     tau( 214) = (   0.7500000   0.9166670   0.9166670  )
       215        Sb     tau( 215) = (   0.9166670   0.7500000   0.9166670  )
       216        As     tau( 216) = (   0.9166670   0.9166670   0.7500000  )

     number of k points=     1
                       cart. coord. in units 2pi/alat
        k(    1) = (   0.0000000   0.0000000   0.0000000), wk =   2.0000000

     Dense  grid:  4088065 G-vectors     FFT dimensions: ( 250, 250, 250)

     Estimated max dynamical RAM per process >     260.23 MB

     Estimated total dynamical RAM >     130.12 GB

     Initial potential from superposition of free atoms

     starting charge    3023.5361, renormalised to    3024.0000

     STARTING HUBBARD OCCUPATIONS:

     =================== HUBBARD OCCUPATIONS ===================
     ------------------------ ATOM    1 ------------------------
     Tr[ns(  1)] =   1.00000
     eigenvalues:
       0.167  0.167  0.167
     eigenvectors (columns):
       1.000  0.000  0.000
       0.000  1.000  0.000
       0.000  0.000  1.000
     occupation matrix ns (before diag.):
       0.167  0.000  0.000
       0.000  0.167  0.000
       0.000  0.000  0.167
     ------------------------ ATOM    2 ------------------------
     Tr[ns(  2)] =   1.00000
     eigenvalues:
       0.167  0.167  0.167
     eigenvectors (columns):
       1.000  0.000  0.000
       0.000  1.000  0.000
       0.000  0.000  1.000
     occupation matrix ns (before diag.):
       0.167  0.000  0.000
       0.000  0.167  0.000
       0.000  0.000  0.167
     ------------------------ ATOM    3 ------------------------
     Tr[ns(  3)] =   1.00000
     eigenvalues:
       0.167  0.167  0.167
     eigenvectors (columns):
       1.000  0.000  0.000
       0.000  1.000  0.000
       0.000  0.000  1.000
     occupation matrix ns (before diag.):
       0.167  0.000  0.000
       0.000  0.167  0.000
       0.000  0.000  0.167
     ------------------------ ATOM    4 ------------------------
     Tr[ns(  4)] =   1.00000
     eigenvalues:
       0.167  0.167  0.167
     eigenvectors (columns):
       1.000  0.000  0.000
       0.000  1.000  0.000
       0.000  0.000  1.000
     occupation matrix ns (before diag.):
       0.167  0.000  0.000
       0.000  0.167  0.000
       0.000  0.000  0.167
     ------------------------ ATOM    5 ------------------------
     Tr[ns(  5)] =   3.00000
     eigenvalues:
       0.500  0.500  0.500
     eigenvectors (columns):
       1.000  0.000  0.000
       0.000  1.000  0.000
       0.000  0.000  1.000
     occupation matrix ns (before diag.):
       0.500  0.000  0.000
       0.000  0.500  0.000
       0.000  0.000  0.500
     ------------------------ ATOM    6 ------------------------
     Tr[ns(  6)] =   3.00000
     eigenvalues:
       0.500  0.500  0.500
     eigenvectors (columns):
       1.000  0.000  0.000
       0.000  1.000  0.000
       0.000  0.000  1.000
     occupation matrix ns (before diag.):
       0.500  0.000  0.000
       0.000  0.500  0.000
       0.000  0.000  0.500
     ------------------------ ATOM    7 ------------------------
     Tr[ns(  7)] =   3.00000
     eigenvalues:
       0.500  0.500  0.500
     eigenvectors (columns):
       1.000  0.000  0.000
       0.000  1.000  0.000
       0.000  0.000  1.000
     occupation matrix ns (before diag.):
       0.500  0.000  0.000
       0.000  0.500  0.000
       0.000  0.000  0.500
     ------------------------ ATOM    8 ------------------------
     Tr[ns(  8)] =   3.00000
     eigenvalues:
       0.500  0.500  0.500
     eigenvectors (columns):
       1.000  0.000  0.000
       0.000  1.000  0.000
       0.000  0.000  1.000
     occupation matrix ns (before diag.):
       0.500  0.000  0.000
       0.000  0.500  0.000
       0.000  0.000  0.500
     ------------------------ ATOM    9 ------------------------
     Tr[ns(  9)] =   1.00000
     eigenvalues:
       0.167  0.167  0.167
     eigenvectors (columns):
       1.000  0.000  0.000
       0.000  1.000  0.000
       0.000  0.000  1.000
     occupation matrix ns (before diag.):
       0.167  0.000  0.000
       0.000  0.167  0.000
       0.000  0.000  0.167
     ------------------------ ATOM   10 ------------------------
     Tr[ns( 10)] =   1.00000
     eigenvalues:
       0.167  0.167  0.167
     eigenvectors (columns):
       1.000  0.000  0.000
       0.000  1.000  0.000
       0.000  0.000  1.000
     occupation matrix ns (before diag.):
       0.167  0.000  0.000
       0.000  0.167  0.000
       0.000  0.000  0.167
     ------------------------ ATOM   11 ------------------------
     Tr[ns( 11)] =   1.00000
     eigenvalues:
       0.167  0.167  0.167
     eigenvectors (columns):
       1.000  0.000  0.000
       0.000  1.000  0.000
       0.000  0.000  1.000
     occupation matrix ns (before diag.):
       0.167  0.000  0.000
       0.000  0.167  0.000
       0.000  0.000  0.167
     ------------------------ ATOM   12 ------------------------
     Tr[ns( 12)] =   1.00000
     eigenvalues:
       0.167  0.167  0.167
     eigenvectors (columns):
       1.000  0.000  0.000
       0.000  1.000  0.000
       0.000  0.000  1.000
     occupation matrix ns (before diag.):
       0.167  0.000  0.000
       0.000  0.167  0.000
       0.000  0.000  0.167
     ------------------------ ATOM   13 ------------------------
     Tr[ns( 13)] =   3.00000
     eigenvalues:
       0.500  0.500  0.500
     eigenvectors (columns):
       1.000  0.000  0.000
       0.000  1.000  0.000
       0.000  0.000  1.000
     occupation matrix ns (before diag.):
       0.500  0.000  0.000
       0.000  0.500  0.000
       0.000  0.000  0.500
     ------------------------ ATOM   14 ------------------------
     Tr[ns( 14)] =   3.00000
     eigenvalues:
       0.500  0.500  0.500
     eigenvectors (columns):
       1.000  0.000  0.000
       0.000  1.000  0.000
       0.000  0.000  1.000
     occupation matrix ns (before diag.):
       0.500  0.000  0.000
       0.000  0.500  0.000
       0.000  0.000  0.500
     ------------------------ ATOM   15 ------------------------
     Tr[ns( 15)] =   3.00000
     eigenvalues:
       0.500  0.500  0.500
     eigenvectors (columns):
       1.000  0.000  0.000
       0.000  1.000  0.000
       0.000  0.000  1.000
     occupation matrix ns (before diag.):
       0.500  0.000  0.000
       0.000  0.500  0.000
       0.000  0.000  0.500
     ------------------------ ATOM   16 ------------------------
     Tr[ns( 16)] =   3.00000
     eigenvalues:
       0.500  0.500  0.500
     eigenvectors (columns):
       1.000  0.000  0.000
       0.000  1.000  0.000
       0.000  0.000  1.000
     occupation matrix ns (before diag.):
       0.500  0.000  0.000
       0.000  0.500  0.000
       0.000  0.000  0.500
     ------------------------ ATOM   17 ------------------------
     Tr[ns( 17)] =   1.00000
     eigenvalues:
       0.167  0.167  0.167
     eigenvectors (columns):
       1.000  0.000  0.000
       0.000  1.000  0.000
       0.000  0.000  1.000
     occupation matrix ns (before diag.):
       0.167  0.000  0.000
       0.000  0.167  0.000
       0.000  0.000  0.167
     ------------------------ ATOM   18 ------------------------
     Tr[ns( 18)] =   1.00000
     eigenvalues:
       0.167  0.167  0.167
     eigenvectors (columns):
       1.000  0.000  0.000
       0.000  1.000  0.000
       0.000  0.000  1.000
     occupation matrix ns (before diag.):
       0.167  0.000  0.000
       0.000  0.167  0.000
       0.000  0.000  0.167
     ------------------------ ATOM   19 ------------------------
     Tr[ns( 19)] =   1.00000
     eigenvalues:
       0.167  0.167  0.167
     eigenvectors (columns):
       1.000  0.000  0.000
       0.000  1.000  0.000
       0.000  0.000  1.000
     occupation matrix ns (before diag.):
       0.167  0.000  0.000
       0.000  0.167  0.000
       0.000  0.000  0.167
     ------------------------ ATOM   20 ------------------------
     Tr[ns( 20)] =   1.00000
     eigenvalues:
       0.167  0.167  0.167
     eigenvectors (columns):
       1.000  0.000  0.000
       0.000  1.000  0.000
       0.000  0.000  1.000
     occupation matrix ns (before diag.):
       0.167  0.000  0.000
       0.000  0.167  0.000
       0.000  0.000  0.167
     ------------------------ ATOM   21 ------------------------
     Tr[ns( 21)] =   3.00000
     eigenvalues:
       0.500  0.500  0.500
     eigenvectors (columns):
       1.000  0.000  0.000
       0.000  1.000  0.000
       0.000  0.000  1.000
     occupation matrix ns (before diag.):
       0.500  0.000  0.000
       0.000  0.500  0.000
       0.000  0.000  0.500
     ------------------------ ATOM   22 ------------------------
     Tr[ns( 22)] =   3.00000
     eigenvalues:
       0.500  0.500  0.500
     eigenvectors (columns):
       1.000  0.000  0.000
       0.000  1.000  0.000
       0.000  0.000  1.000
     occupation matrix ns (before diag.):
       0.500  0.000  0.000
       0.000  0.500  0.000
       0.000  0.000  0.500
     ------------------------ ATOM   23 ------------------------
     Tr[ns( 23)] =   3.00000
     eigenvalues:
       0.500  0.500  0.500
     eigenvectors (columns):
       1.000  0.000  0.000
       0.000  1.000  0.000
       0.000  0.000  1.000
     occupation matrix ns (before diag.):
       0.500  0.000  0.000
       0.000  0.500  0.000
       0.000  0.000  0.500
     ------------------------ ATOM   24 ------------------------
     Tr[ns( 24)] =   3.00000
     eigenvalues:
       0.500  0.500  0.500
     eigenvectors (columns):
       1.000  0.000  0.000
       0.000  1.000  0.000
       0.000  0.000  1.000
     occupation matrix ns (before diag.):
       0.500  0.000  0.000
       0.000  0.500  0.000
       0.000  0.000  0.500
     ------------------------ ATOM   25 ------------------------
     Tr[ns( 25)] =   1.00000
     eigenvalues:
       0.167  0.167  0.167
     eigenvectors (columns):
       1.000  0.000  0.000
       0.000  1.000  0.000
       0.000  0.000  1.000
     occupation matrix ns (before diag.):
       0.167  0.000  0.000
       0.000  0.167  0.000
       0.000  0.000  0.167
     ------------------------ ATOM   26 ------------------------
     Tr[ns( 26)] =   1.00000
     eigenvalues:
       0.167  0.167  0.167
     eigenvectors (columns):
       1.000  0.000  0.000
       0.000  1.000  0.000
       0.000  0.000  1.000
     occupation matrix ns (before diag.):
       0.167  0.000  0.000
       0.000  0.167  0.000
       0.000  0.000  0.167
     ------------------------ ATOM   27 ------------------------
     Tr[ns( 27)] =   1.00000
     eigenvalues:
       0.167  0.167  0.167
     eigenvectors (columns):
       1.000  0.000  0.000
       0.000  1.000  0.000
       0.000  0.000  1.000
     occupation matrix ns (before diag.):
       0.167  0.000  0.000
       0.000  0.167  0.000
       0.000  0.000  0.167
     ------------------------ ATOM   28 ------------------------
     Tr[ns( 28)] =   1.00000
     eigenvalues:
       0.167  0.167  0.167
     eigenvectors (columns):
       1.000  0.000  0.000
       0.000  1.000  0.000
       0.000  0.000  1.000
     occupation matrix ns (before diag.):
       0.167  0.000  0.000
       0.000  0.167  0.000
       0.000  0.000  0.167
     ------------------------ ATOM   29 ------------------------
     Tr[ns( 29)] =   3.00000
     eigenvalues:
       0.500  0.500  0.500
     eigenvectors (columns):
       1.000  0.000  0.000
       0.000  1.000  0.000
       0.000  0.000  1.000
     occupation matrix ns (before diag.):
       0.500  0.000  0.000
       0.000  0.500  0.000
       0.000  0.000  0.500
     ------------------------ ATOM   30 ------------------------
     Tr[ns( 30)] =   3.00000
     eigenvalues:
       0.500  0.500  0.500
     eigenvectors (columns):
       1.000  0.000  0.000
       0.000  1.000  0.000
       0.000  0.000  1.000
     occupation matrix ns (before diag.):
       0.500  0.000  0.000
       0.000  0.500  0.000
       0.000  0.000  0.500
     ------------------------ ATOM   31 ------------------------
     Tr[ns( 31)] =   3.00000
     eigenvalues:
       0.500  0.500  0.500
     eigenvectors (columns):
       1.000  0.000  0.000
       0.000  1.000  0.000
       0.000  0.000  1.000
     occupation matrix ns (before diag.):
       0.500  0.000  0.000
       0.000  0.500  0.000
       0.000  0.000  0.500
     ------------------------ ATOM   32 ------------------------
     Tr[ns( 32)] =   3.00000
     eigenvalues:
       0.500  0.500  0.500
     eigenvectors (columns):
       1.000  0.000  0.000
       0.000  1.000  0.000
       0.000  0.000  1.000
     occupation matrix ns (before diag.):
       0.500  0.000  0.000
       0.000  0.500  0.000
       0.000  0.000  0.500
     ------------------------ ATOM   33 ------------------------
     Tr[ns( 33)] =   1.00000
     eigenvalues:
       0.167  0.167  0.167
     eigenvectors (columns):
       1.000  0.000  0.000
       0.000  1.000  0.000
       0.000  0.000  1.000
     occupation matrix ns (before diag.):
       0.167  0.000  0.000
       0.000  0.167  0.000
       0.000  0.000  0.167
     ------------------------ ATOM   34 ------------------------
     Tr[ns( 34)] =   1.00000
     eigenvalues:
       0.167  0.167  0.167
     eigenvectors (columns):
       1.000  0.000  0.000
       0.000  1.000  0.000
       0.000  0.000  1.000
     occupation matrix ns (before diag.):
       0.167  0.000  0.000
       0.000  0.167  0.000
       0.000  0.000  0.167
     ------------------------ ATOM   35 ------------------------
     Tr[ns( 35)] =   1.00000
     eigenvalues:
       0.167  0.167  0.167
     eigenvectors (columns):
       1.000  0.000  0.000
       0.000  1.000  0.000
       0.000  0.000  1.000
     occupation matrix ns (before diag.):
       0.167  0.000  0.000
       0.000  0.167  0.000
       0.000  0.000  0.167
     ------------------------ ATOM   36 ------------------------
     Tr[ns( 36)] =   1.00000
     eigenvalues:
       0.167  0.167  0.167
     eigenvectors (columns):
       1.000  0.000  0.000
       0.000  1.000  0.000
       0.000  0.000  1.000
     occupation matrix ns (before diag.):
       0.167  0.000  0.000
       0.000  0.167  0.000
       0.000  0.000  0.167
     ------------------------ ATOM   37 ------------------------
     Tr[ns( 37)] =   3.00000
     eigenvalues:
       0.500  0.500  0.500
     eigenvectors (columns):
       1.000  0.000  0.000
       0.000  1.000  0.000
       0.000  0.000  1.000
     occupation matrix ns (before diag.):
       0.500  0.000  0.000
       0.000  0.500  0.000
       0.000  0.000  0.500
     ------------------------ ATOM   38 ------------------------
     Tr[ns( 38)] =   3.00000
     eigenvalues:
       0.500  0.500  0.500
     eigenvectors (columns):
       1.000  0.000  0.000
       0.000  1.000  0.000
       0.000  0.000  1.000
     occupation matrix ns (before diag.):
       0.500  0.000  0.000
       0.000  0.500  0.000
       0.000  0.000  0.500
     ------------------------ ATOM   39 ------------------------
     Tr[ns( 39)] =   3.00000
     eigenvalues:
       0.500  0.500  0.500
     eigenvectors (columns):
       1.000  0.000  0.000
       0.000  1.000  0.000
       0.000  0.000  1.000
     occupation matrix ns (before diag.):
       0.500  0.000  0.000
       0.000  0.500  0.000
       0.000  0.000  0.500
     ------------------------ ATOM   40 ------------------------
     Tr[ns( 40)] =   3.00000
     eigenvalues:
       0.500  0.500  0.500
     eigenvectors (columns):
       1.000  0.000  0.000
       0.000  1.000  0.000
       0.000  0.000  1.000
     occupation matrix ns (before diag.):
       0.500  0.000  0.000
       0.000  0.500  0.000
       0.000  0.000  0.500
     ------------------------ ATOM   41 ------------------------
     Tr[ns( 41)] =   1.00000
     eigenvalues:
       0.167  0.167  0.167
     eigenvectors (columns):
       1.000  0.000  0.000
       0.000  1.000  0.000
       0.000  0.000  1.000
     occupation matrix ns (before diag.):
       0.167  0.000  0.000
       0.000  0.167  0.000
       0.000  0.000  0.167
     ------------------------ ATOM   42 ------------------------
     Tr[ns( 42)] =   1.00000
     eigenvalues:
       0.167  0.167  0.167
     eigenvectors (columns):
       1.000  0.000  0.000
       0.000  1.000  0.000
       0.000  0.000  1.000
     occupation matrix ns (before diag.):
       0.167  0.000  0.000
       0.000  0.167  0.000
       0.000  0.000  0.167
     ------------------------ ATOM   43 ------------------------
     Tr[ns( 43)] =   1.00000
     eigenvalues:
       0.167  0.167  0.167
     eigenvectors (columns):
       1.000  0.000  0.000
       0.000  1.000  0.000
       0.000  0.000  1.000
     occupation matrix ns (before diag.):
       0.167  0.000  0.000
       0.000  0.167  0.000
       0.000  0.000  0.167
     ------------------------ ATOM   44 ------------------------
     Tr[ns( 44)] =   1.00000
     eigenvalues:
       0.167  0.167  0.167
     eigenvectors (columns):
       1.000  0.000  0.000
       0.000  1.000  0.000
       0.000  0.000  1.000
     occupation matrix ns (before diag.):
       0.167  0.000  0.000
       0.000  0.167  0.000
       0.000  0.000  0.167
     ------------------------ ATOM   45 ------------------------
     Tr[ns( 45)] =   3.00000
     eigenvalues:
       0.500  0.500  0.500
     eigenvectors (columns):
       1.000  0.000  0.000
       0.000  1.000  0.000
       0.000  0.000  1.000
     occupation matrix ns (before diag.):
       0.500  0.000  0.000
       0.000  0.500  0.000
       0.000  0.000  0.500
     ------------------------ ATOM   46 ------------------------
     Tr[ns( 46)] =   3.00000
     eigenvalues:
       0.500  0.500  0.500
     eigenvectors (columns):
       1.000  0.000  0.000
       0.000  1.000  0.000
       0.000  0.000  1.000
     occupation matrix ns (before diag.):
       0.500  0.000  0.000
       0.000  0.500  0.000
       0.000  0.000  0.500
     ------------------------ ATOM   47 ------------------------
     Tr[ns( 47)] =   3.00000
     eigenvalues:
       0.500  0.500  0.500
     eigenvectors (columns):
       1.000  0.000  0.000
       0.000  1.000  0.000
       0.000  0.000  1.000
     occupation matrix ns (before diag.):
       0.500  0.000  0.000
       0.000  0.500  0.000
       0.000  0.000  0.500
     ------------------------ ATOM   48 ------------------------
     Tr[ns( 48)] =   3.00000
     eigenvalues:
       0.500  0.500  0.500
     eigenvectors (columns):
       1.000  0.000  0.000
       0.000  1.000  0.000
       0.000  0.000  1.000
     occupation matrix ns (before diag.):
       0.500  0.000  0.000
       0.000  0.500  0.000
       0.000  0.000  0.500
     ------------------------ ATOM   49 ------------------------
     Tr[ns( 49)] =   1.00000
     eigenvalues:
       0.167  0.167  0.167
     eigenvectors (columns):
       1.000  0.000  0.000
       0.000  1.000  0.000
       0.000  0.000  1.000
     occupation matrix ns (before diag.):
       0.167  0.000  0.000
       0.000  0.167  0.000
       0.000  0.000  0.167
     ------------------------ ATOM   50 ------------------------
     Tr[ns( 50)] =   1.00000
     eigenvalues:
       0.167  0.167  0.167
     eigenvectors (columns):
       1.000  0.000  0.000
       0.000  1.000  0.000
       0.000  0.000  1.000
     occupation matrix ns (before diag.):
       0.167  0.000  0.000
       0.000  0.167  0.000
       0.000  0.000  0.167
     ------------------------ ATOM   51 ------------------------
     Tr[ns( 51)] =   1.00000
     eigenvalues:
       0.167  0.167  0.167
     eigenvectors (columns):
       1.000  0.000  0.000
       0.000  1.000  0.000
       0.000  0.000  1.000
     occupation matrix ns (before diag.):
       0.167  0.000  0.000
       0.000  0.167  0.000
       0.000  0.000  0.167
     ------------------------ ATOM   52 ------------------------
     Tr[ns( 52)] =   1.00000
     eigenvalues:
       0.167  0.167  0.167
     eigenvectors (columns):
       1.000  0.000  0.000
       0.000  1.000  0.000
       0.000  0.000  1.000
     occupation matrix ns (before diag.):
       0.167  0.000  0.000
       0.000  0.167  0.000
       0.000  0.000  0.167
     ------------------------ ATOM   53 ------------------------
     Tr[ns( 53)] =   3.00000
     eigenvalues:
       0.500  0.500  0.500
     eigenvectors (columns):
       1.000  0.000  0.000
       0.000  1.000  0.000
       0.000  0.000  1.000
     occupation matrix ns (before diag.):
       0.500  0.000  0.000
       0.000  0.500  0.000
       0.000  0.000  0.500
     ------------------------ ATOM   54 ------------------------
     Tr[ns( 54)] =   3.00000
     eigenvalues:
       0.500  0.500  0.500
     eigenvectors (columns):
       1.000  0.000  0.000
       0.000  1.000  0.000
       0.000  0.000  1.000
     occupation matrix ns (before diag.):
       0.500  0.000  0.000
       0.000  0.500  0.000
       0.000  0.000  0.500
     ------------------------ ATOM   55 ------------------------
     Tr[ns( 55)] =   3.00000
     eigenvalues:
       0.500  0.500  0.500
     eigenvectors (columns):
       1.000  0.000  0.000
       0.000  1.000  0.000
       0.000  0.000  1.000
     occupation matrix ns (before diag.):
       0.500  0.000  0.000
       0.000  0.500  0.000
       0.000  0.000  0.500
     ------------------------ ATOM   56 ------------------------
     Tr[ns( 56)] =   3.00000
     eigenvalues:
       0.500  0.500  0.500
     eigenvectors (columns):
       1.000  0.000  0.000
       0.000  1.000  0.000
       0.000  0.000  1.000
     occupation matrix ns (before diag.):
       0.500  0.000  0.000
       0.000  0.500  0.000
       0.000  0.000  0.500
     ------------------------ ATOM   57 ------------------------
     Tr[ns( 57)] =   1.00000
     eigenvalues:
       0.167  0.167  0.167
     eigenvectors (columns):
       1.000  0.000  0.000
       0.000  1.000  0.000
       0.000  0.000  1.000
     occupation matrix ns (before diag.):
       0.167  0.000  0.000
       0.000  0.167  0.000
       0.000  0.000  0.167
     ------------------------ ATOM   58 ------------------------
     Tr[ns( 58)] =   1.00000
     eigenvalues:
       0.167  0.167  0.167
     eigenvectors (columns):
       1.000  0.000  0.000
       0.000  1.000  0.000
       0.000  0.000  1.000
     occupation matrix ns (before diag.):
       0.167  0.000  0.000
       0.000  0.167  0.000
       0.000  0.000  0.167
     ------------------------ ATOM   59 ------------------------
     Tr[ns( 59)] =   1.00000
     eigenvalues:
       0.167  0.167  0.167
     eigenvectors (columns):
       1.000  0.000  0.000
       0.000  1.000  0.000
       0.000  0.000  1.000
     occupation matrix ns (before diag.):
       0.167  0.000  0.000
       0.000  0.167  0.000
       0.000  0.000  0.167
     ------------------------ ATOM   60 ------------------------
     Tr[ns( 60)] =   1.00000
     eigenvalues:
       0.167  0.167  0.167
     eigenvectors (columns):
       1.000  0.000  0.000
       0.000  1.000  0.000
       0.000  0.000  1.000
     occupation matrix ns (before diag.):
       0.167  0.000  0.000
       0.000  0.167  0.000
       0.000  0.000  0.167
     ------------------------ ATOM   61 ------------------------
     Tr[ns( 61)] =   3.00000
     eigenvalues:
       0.500  0.500  0.500
     eigenvectors (columns):
       1.000  0.000  0.000
       0.000  1.000  0.000
       0.000  0.000  1.000
     occupation matrix ns (before diag.):
       0.500  0.000  0.000
       0.000  0.500  0.000
       0.000  0.000  0.500
     ------------------------ ATOM   62 ------------------------
     Tr[ns( 62)] =   3.00000
     eigenvalues:
       0.500  0.500  0.500
     eigenvectors (columns):
       1.000  0.000  0.000
       0.000  1.000  0.000
       0.000  0.000  1.000
     occupation matrix ns (before diag.):
       0.500  0.000  0.000
       0.000  0.500  0.000
       0.000  0.000  0.500
     ------------------------ ATOM   63 ------------------------
     Tr[ns( 63)] =   3.00000
     eigenvalues:
       0.500  0.500  0.500
     eigenvectors (columns):
       1.000  0.000  0.000
       0.000  1.000  0.000
       0.000  0.000  1.000
     occupation matrix ns (before diag.):
       0.500  0.000  0.000
       0.000  0.500  0.000
       0.000  0.000  0.500
     ------------------------ ATOM   64 ------------------------
     Tr[ns( 64)] =   3.00000
     eigenvalues:
       0.500  0.500  0.500
     eigenvectors (columns):
       1.000  0.000  0.000
       0.000  1.000  0.000
       0.000  0.000  1.000
     occupation matrix ns (before diag.):
       0.500  0.000  0.000
       0.000  0.500  0.000
       0.000  0.000  0.500
     ------------------------ ATOM   65 ------------------------
     Tr[ns( 65)] =   1.00000
     eigenvalues:
       0.167  0.167  0.167
     eigenvectors (columns):
       1.000  0.000  0.000
       0.000  1.000  0.000
       0.000  0.000  1.000
     occupation matrix ns (before diag.):
       0.167  0.000  0.000
       0.000  0.167  0.000
       0.000  0.000  0.167
     ------------------------ ATOM   66 ------------------------
     Tr[ns( 66)] =   1.00000
     eigenvalues:
       0.167  0.167  0.167
     eigenvectors (columns):
       1.000  0.000  0.000
       0.000  1.000  0.000
       0.000  0.000  1.000
     occupation matrix ns (before diag.):
       0.167  0.000  0.000
       0.000  0.167  0.000
       0.000  0.000  0.167
     ------------------------ ATOM   67 ------------------------
     Tr[ns( 67)] =   1.00000
     eigenvalues:
       0.167  0.167  0.167
     eigenvectors (columns):
       1.000  0.000  0.000
       0.000  1.000  0.000
       0.000  0.000  1.000
     occupation matrix ns (before diag.):
       0.167  0.000  0.000
       0.000  0.167  0.000
       0.000  0.000  0.167
     ------------------------ ATOM   68 ------------------------
     Tr[ns( 68)] =   1.00000
     eigenvalues:
       0.167  0.167  0.167
     eigenvectors (columns):
       1.000  0.000  0.000
       0.000  1.000  0.000
       0.000  0.000  1.000
     occupation matrix ns (before diag.):
       0.167  0.000  0.000
       0.000  0.167  0.000
       0.000  0.000  0.167
     ------------------------ ATOM   69 ------------------------
     Tr[ns( 69)] =   3.00000
     eigenvalues:
       0.500  0.500  0.500
     eigenvectors (columns):
       1.000  0.000  0.000
       0.000  1.000  0.000
       0.000  0.000  1.000
     occupation matrix ns (before diag.):
       0.500  0.000  0.000
       0.000  0.500  0.000
       0.000  0.000  0.500
     ------------------------ ATOM   70 ------------------------
     Tr[ns( 70)] =   3.00000
     eigenvalues:
       0.500  0.500  0.500
     eigenvectors (columns):
       1.000  0.000  0.000
       0.000  1.000  0.000
       0.000  0.000  1.000
     occupation matrix ns (before diag.):
       0.500  0.000  0.000
       0.000  0.500  0.000
       0.000  0.000  0.500
     ------------------------ ATOM   71 ------------------------
     Tr[ns( 71)] =   3.00000
     eigenvalues:
       0.500  0.500  0.500
     eigenvectors (columns):
       1.000  0.000  0.000
       0.000  1.000  0.000
       0.000  0.000  1.000
     occupation matrix ns (before diag.):
       0.500  0.000  0.000
       0.000  0.500  0.000
       0.000  0.000  0.500
     ------------------------ ATOM   72 ------------------------
     Tr[ns( 72)] =   3.00000
     eigenvalues:
       0.500  0.500  0.500
     eigenvectors (columns):
       1.000  0.000  0.000
       0.000  1.000  0.000
       0.000  0.000  1.000
     occupation matrix ns (before diag.):
       0.500  0.000  0.000
       0.000  0.500  0.000
       0.000  0.000  0.500
     ------------------------ ATOM   73 ------------------------
     Tr[ns( 73)] =   1.00000
     eigenvalues:
       0.167  0.167  0.167
     eigenvectors (columns):
       1.000  0.000  0.000
       0.000  1.000  0.000
       0.000  0.000  1.000
     occupation matrix ns (before diag.):
       0.167  0.000  0.000
       0.000  0.167  0.000
       0.000  0.000  0.167
     ------------------------ ATOM   74 ------------------------
     Tr[ns( 74)] =   1.00000
     eigenvalues:
       0.167  0.167  0.167
     eigenvectors (columns):
       1.000  0.000  0.000
       0.000  1.000  0.000
       0.000  0.000  1.000
     occupation matrix ns (before diag.):
       0.167  0.000  0.000
       0.000  0.167  0.000
       0.000  0.000  0.167
     ------------------------ ATOM   75 ------------------------
     Tr[ns( 75)] =   1.00000
     eigenvalues:
       0.167  0.167  0.167
     eigenvectors (columns):
       1.000  0.000  0.000
       0.000  1.000  0.000
       0.000  0.000  1.000
     occupation matrix ns (before diag.):
       0.167  0.000  0.000
       0.000  0.167  0.000
       0.000  0.000  0.167
     ------------------------ ATOM   76 ------------------------
     Tr[ns( 76)] =   1.00000
     eigenvalues:
       0.167  0.167  0.167
     eigenvectors (columns):
       1.000  0.000  0.000
       0.000  1.000  0.000
       0.000  0.000  1.000
     occupation matrix ns (before diag.):
       0.167  0.000  0.000
       0.000  0.167  0.000
       0.000  0.000  0.167
     ------------------------ ATOM   77 ------------------------
     Tr[ns( 77)] =   3.00000
     eigenvalues:
       0.500  0.500  0.500
     eigenvectors (columns):
       1.000  0.000  0.000
       0.000  1.000  0.000
       0.000  0.000  1.000
     occupation matrix ns (before diag.):
       0.500  0.000  0.000
       0.000  0.500  0.000
       0.000  0.000  0.500
     ------------------------ ATOM   78 ------------------------
     Tr[ns( 78)] =   3.00000
     eigenvalues:
       0.500  0.500  0.500
     eigenvectors (columns):
       1.000  0.000  0.000
       0.000  1.000  0.000
       0.000  0.000  1.000
     occupation matrix ns (before diag.):
       0.500  0.000  0.000
       0.000  0.500  0.000
       0.000  0.000  0.500
     ------------------------ ATOM   79 ------------------------
     Tr[ns( 79)] =   3.00000
     eigenvalues:
       0.500  0.500  0.500
     eigenvectors (columns):
       1.000  0.000  0.000
       0.000  1.000  0.000
       0.000  0.000  1.000
     occupation matrix ns (before diag.):
       0.500  0.000  0.000
       0.000  0.500  0.000
       0.000  0.000  0.500
     ------------------------ ATOM   80 ------------------------
     Tr[ns( 80)] =   3.00000
     eigenvalues:
       0.500  0.500  0.500
     eigenvectors (columns):
       1.000  0.000  0.000
       0.000  1.000  0.000
       0.000  0.000  1.000
     occupation matrix ns (before diag.):
       0.500  0.000  0.000
       0.000  0.500  0.000
       0.000  0.000  0.500
     ------------------------ ATOM   81 ------------------------
     Tr[ns( 81)] =   1.00000
     eigenvalues:
       0.167  0.167  0.167
     eigenvectors (columns):
       1.000  0.000  0.000
       0.000  1.000  0.000
       0.000  0.000  1.000
     occupation matrix ns (before diag.):
       0.167  0.000  0.000
       0.000  0.167  0.000
       0.000  0.000  0.167
     ------------------------ ATOM   82 ------------------------
     Tr[ns( 82)] =   1.00000
     eigenvalues:
       0.167  0.167  0.167
     eigenvectors (columns):
       1.000  0.000  0.000
       0.000  1.000  0.000
       0.000  0.000  1.000
     occupation matrix ns (before diag.):
       0.167  0.000  0.000
       0.000  0.167  0.000
       0.000  0.000  0.167
     ------------------------ ATOM   83 ------------------------
     Tr[ns( 83)] =   1.00000
     eigenvalues:
       0.167  0.167  0.167
     eigenvectors (columns):
       1.000  0.000  0.000
       0.000  1.000  0.000
       0.000  0.000  1.000
     occupation matrix ns (before diag.):
       0.167  0.000  0.000
       0.000  0.167  0.000
       0.000  0.000  0.167
     ------------------------ ATOM   84 ------------------------
     Tr[ns( 84)] =   1.00000
     eigenvalues:
       0.167  0.167  0.167
     eigenvectors (columns):
       1.000  0.000  0.000
       0.000  1.000  0.000
       0.000  0.000  1.000
     occupation matrix ns (before diag.):
       0.167  0.000  0.000
       0.000  0.167  0.000
       0.000  0.000  0.167
     ------------------------ ATOM   85 ------------------------
     Tr[ns( 85)] =   3.00000
     eigenvalues:
       0.500  0.500  0.500
     eigenvectors (columns):
       1.000  0.000  0.000
       0.000  1.000  0.000
       0.000  0.000  1.000
     occupation matrix ns (before diag.):
       0.500  0.000  0.000
       0.000  0.500  0.000
       0.000  0.000  0.500
     ------------------------ ATOM   86 ------------------------
     Tr[ns( 86)] =   3.00000
     eigenvalues:
       0.500  0.500  0.500
     eigenvectors (columns):
       1.000  0.000  0.000
       0.000  1.000  0.000
       0.000  0.000  1.000
     occupation matrix ns (before diag.):
       0.500  0.000  0.000
       0.000  0.500  0.000
       0.000  0.000  0.500
     ------------------------ ATOM   87 ------------------------
     Tr[ns( 87)] =   3.00000
     eigenvalues:
       0.500  0.500  0.500
     eigenvectors (columns):
       1.000  0.000  0.000
       0.000  1.000  0.000
       0.000  0.000  1.000
     occupation matrix ns (before diag.):
       0.500  0.000  0.000
       0.000  0.500  0.000
       0.000  0.000  0.500
     ------------------------ ATOM   88 ------------------------
     Tr[ns( 88)] =   3.00000
     eigenvalues:
       0.500  0.500  0.500
     eigenvectors (columns):
       1.000  0.000  0.000
       0.000  1.000  0.000
       0.000  0.000  1.000
     occupation matrix ns (before diag.):
       0.500  0.000  0.000
       0.000  0.500  0.000
       0.000  0.000  0.500
     ------------------------ ATOM   89 ------------------------
     Tr[ns( 89)] =   1.00000
     eigenvalues:
       0.167  0.167  0.167
     eigenvectors (columns):
       1.000  0.000  0.000
       0.000  1.000  0.000
       0.000  0.000  1.000
     occupation matrix ns (before diag.):
       0.167  0.000  0.000
       0.000  0.167  0.000
       0.000  0.000  0.167
     ------------------------ ATOM   90 ------------------------
     Tr[ns( 90)] =   1.00000
     eigenvalues:
       0.167  0.167  0.167
     eigenvectors (columns):
       1.000  0.000  0.000
       0.000  1.000  0.000
       0.000  0.000  1.000
     occupation matrix ns (before diag.):
       0.167  0.000  0.000
       0.000  0.167  0.000
       0.000  0.000  0.167
     ------------------------ ATOM   91 ------------------------
     Tr[ns( 91)] =   1.00000
     eigenvalues:
       0.167  0.167  0.167
     eigenvectors (columns):
       1.000  0.000  0.000
       0.000  1.000  0.000
       0.000  0.000  1.000
     occupation matrix ns (before diag.):
       0.167  0.000  0.000
       0.000  0.167  0.000
       0.000  0.000  0.167
     ------------------------ ATOM   92 ------------------------
     Tr[ns( 92)] =   1.00000
     eigenvalues:
       0.167  0.167  0.167
     eigenvectors (columns):
       1.000  0.000  0.000
       0.000  1.000  0.000
       0.000  0.000  1.000
     occupation matrix ns (before diag.):
       0.167  0.000  0.000
       0.000  0.167  0.000
       0.000  0.000  0.167
     ------------------------ ATOM   93 ------------------------
     Tr[ns( 93)] =   3.00000
     eigenvalues:
       0.500  0.500  0.500
     eigenvectors (columns):
       1.000  0.000  0.000
       0.000  1.000  0.000
       0.000  0.000  1.000
     occupation matrix ns (before diag.):
       0.500  0.000  0.000
       0.000  0.500  0.000
       0.000  0.000  0.500
     ------------------------ ATOM   94 ------------------------
     Tr[ns( 94)] =   3.00000
     eigenvalues:
       0.500  0.500  0.500
     eigenvectors (columns):
       1.000  0.000  0.000
       0.000  1.000  0.000
       0.000  0.000  1.000
     occupation matrix ns (before diag.):
       0.500  0.000  0.000
       0.000  0.500  0.000
       0.000  0.000  0.500
     ------------------------ ATOM   95 ------------------------
     Tr[ns( 95)] =   3.00000
     eigenvalues:
       0.500  0.500  0.500
     eigenvectors (columns):
       1.000  0.000  0.000
       0.000  1.000  0.000
       0.000  0.000  1.000
     occupation matrix ns (before diag.):
       0.500  0.000  0.000
       0.000  0.500  0.000
       0.000  0.000  0.500
     ------------------------ ATOM   96 ------------------------
     Tr[ns( 96)] =   3.00000
     eigenvalues:
       0.500  0.500  0.500
     eigenvectors (columns):
       1.000  0.000  0.000
       0.000  1.000  0.000
       0.000  0.000  1.000
     occupation matrix ns (before diag.):
       0.500  0.000  0.000
       0.000  0.500  0.000
       0.000  0.000  0.500
     ------------------------ ATOM   97 ------------------------
     Tr[ns( 97)] =   1.00000
     eigenvalues:
       0.167  0.167  0.167
     eigenvectors (columns):
       1.000  0.000  0.000
       0.000  1.000  0.000
       0.000  0.000  1.000
     occupation matrix ns (before diag.):
       0.167  0.000  0.000
       0.000  0.167  0.000
       0.000  0.000  0.167
     ------------------------ ATOM   98 ------------------------
     Tr[ns( 98)] =   1.00000
     eigenvalues:
       0.167  0.167  0.167
     eigenvectors (columns):
       1.000  0.000  0.000
       0.000  1.000  0.000
       0.000  0.000  1.000
     occupation matrix ns (before diag.):
       0.167  0.000  0.000
       0.000  0.167  0.000
       0.000  0.000  0.167
     ------------------------ ATOM   99 ------------------------
     Tr[ns( 99)] =   1.00000
     eigenvalues:
       0.167  0.167  0.167
     eigenvectors (columns):
       1.000  0.000  0.000
       0.000  1.000  0.000
       0.000  0.000  1.000
     occupation matrix ns (before diag.):
       0.167  0.000  0.000
       0.000  0.167  0.000
       0.000  0.000  0.167
     ------------------------ ATOM  100 ------------------------
     Tr[ns(100)] =   1.00000
     eigenvalues:
       0.167  0.167  0.167
     eigenvectors (columns):
       1.000  0.000  0.000
       0.000  1.000  0.000
       0.000  0.000  1.000
     occupation matrix ns (before diag.):
       0.167  0.000  0.000
       0.000  0.167  0.000
       0.000  0.000  0.167
     ------------------------ ATOM  101 ------------------------
     Tr[ns(101)] =   3.00000
     eigenvalues:
       0.500  0.500  0.500
     eigenvectors (columns):
       1.000  0.000  0.000
       0.000  1.000  0.000
       0.000  0.000  1.000
     occupation matrix ns (before diag.):
       0.500  0.000  0.000
       0.000  0.500  0.000
       0.000  0.000  0.500
     ------------------------ ATOM  102 ------------------------
     Tr[ns(102)] =   3.00000
     eigenvalues:
       0.500  0.500  0.500
     eigenvectors (columns):
       1.000  0.000  0.000
       0.000  1.000  0.000
       0.000  0.000  1.000
     occupation matrix ns (before diag.):
       0.500  0.000  0.000
       0.000  0.500  0.000
       0.000  0.000  0.500
     ------------------------ ATOM  103 ------------------------
     Tr[ns(103)] =   3.00000
     eigenvalues:
       0.500  0.500  0.500
     eigenvectors (columns):
       1.000  0.000  0.000
       0.000  1.000  0.000
       0.000  0.000  1.000
     occupation matrix ns (before diag.):
       0.500  0.000  0.000
       0.000  0.500  0.000
       0.000  0.000  0.500
     ------------------------ ATOM  104 ------------------------
     Tr[ns(104)] =   3.00000
     eigenvalues:
       0.500  0.500  0.500
     eigenvectors (columns):
       1.000  0.000  0.000
       0.000  1.000  0.000
       0.000  0.000  1.000
     occupation matrix ns (before diag.):
       0.500  0.000  0.000
       0.000  0.500  0.000
       0.000  0.000  0.500
     ------------------------ ATOM  105 ------------------------
     Tr[ns(105)] =   1.00000
     eigenvalues:
       0.167  0.167  0.167
     eigenvectors (columns):
       1.000  0.000  0.000
       0.000  1.000  0.000
       0.000  0.000  1.000
     occupation matrix ns (before diag.):
       0.167  0.000  0.000
       0.000  0.167  0.000
       0.000  0.000  0.167
     ------------------------ ATOM  106 ------------------------
     Tr[ns(106)] =   1.00000
     eigenvalues:
       0.167  0.167  0.167
     eigenvectors (columns):
       1.000  0.000  0.000
       0.000  1.000  0.000
       0.000  0.000  1.000
     occupation matrix ns (before diag.):
       0.167  0.000  0.000
       0.000  0.167  0.000
       0.000  0.000  0.167
     ------------------------ ATOM  107 ------------------------
     Tr[ns(107)] =   1.00000
     eigenvalues:
       0.167  0.167  0.167
     eigenvectors (columns):
       1.000  0.000  0.000
       0.000  1.000  0.000
       0.000  0.000  1.000
     occupation matrix ns (before diag.):
       0.167  0.000  0.000
       0.000  0.167  0.000
       0.000  0.000  0.167
     ------------------------ ATOM  108 ------------------------
     Tr[ns(108)] =   1.00000
     eigenvalues:
       0.167  0.167  0.167
     eigenvectors (columns):
       1.000  0.000  0.000
       0.000  1.000  0.000
       0.000  0.000  1.000
     occupation matrix ns (before diag.):
       0.167  0.000  0.000
       0.000  0.167  0.000
       0.000  0.000  0.167
     ------------------------ ATOM  109 ------------------------
     Tr[ns(109)] =   3.00000
     eigenvalues:
       0.500  0.500  0.500
     eigenvectors (columns):
       1.000  0.000  0.000
       0.000  1.000  0.000
       0.000  0.000  1.000
     occupation matrix ns (before diag.):
       0.500  0.000  0.000
       0.000  0.500  0.000
       0.000  0.000  0.500
     ------------------------ ATOM  110 ------------------------
     Tr[ns(110)] =   3.00000
     eigenvalues:
       0.500  0.500  0.500
     eigenvectors (columns):
       1.000  0.000  0.000
       0.000  1.000  0.000
       0.000  0.000  1.000
     occupation matrix ns (before diag.):
       0.500  0.000  0.000
       0.000  0.500  0.000
       0.000  0.000  0.500
     ------------------------ ATOM  111 ------------------------
     Tr[ns(111)] =   3.00000
     eigenvalues:
       0.500  0.500  0.500
     eigenvectors (columns):
       1.000  0.000  0.000
       0.000  1.000  0.000
       0.000  0.000  1.000
     occupation matrix ns (before diag.):
       0.500  0.000  0.000
       0.000  0.500  0.000
       0.000  0.000  0.500
     ------------------------ ATOM  112 ------------------------
     Tr[ns(112)] =   3.00000
     eigenvalues:
       0.500  0.500  0.500
     eigenvectors (columns):
       1.000  0.000  0.000
       0.000  1.000  0.000
       0.000  0.000  1.000
     occupation matrix ns (before diag.):
       0.500  0.000  0.000
       0.000  0.500  0.000
       0.000  0.000  0.500
     ------------------------ ATOM  113 ------------------------
     Tr[ns(113)] =   1.00000
     eigenvalues:
       0.167  0.167  0.167
     eigenvectors (columns):
       1.000  0.000  0.000
       0.000  1.000  0.000
       0.000  0.000  1.000
     occupation matrix ns (before diag.):
       0.167  0.000  0.000
       0.000  0.167  0.000
       0.000  0.000  0.167
     ------------------------ ATOM  114 ------------------------
     Tr[ns(114)] =   1.00000
     eigenvalues:
       0.167  0.167  0.167
     eigenvectors (columns):
       1.000  0.000  0.000
       0.000  1.000  0.000
       0.000  0.000  1.000
     occupation matrix ns (before diag.):
       0.167  0.000  0.000
       0.000  0.167  0.000
       0.000  0.000  0.167
     ------------------------ ATOM  115 ------------------------
     Tr[ns(115)] =   1.00000
     eigenvalues:
       0.167  0.167  0.167
     eigenvectors (columns):
       1.000  0.000  0.000
       0.000  1.000  0.000
       0.000  0.000  1.000
     occupation matrix ns (before diag.):
       0.167  0.000  0.000
       0.000  0.167  0.000
       0.000  0.000  0.167
     ------------------------ ATOM  116 ------------------------
     Tr[ns(116)] =   1.00000
     eigenvalues:
       0.167  0.167  0.167
     eigenvectors (columns):
       1.000  0.000  0.000
       0.000  1.000  0.000
       0.000  0.000  1.000
     occupation matrix ns (before diag.):
       0.167  0.000  0.000
       0.000  0.167  0.000
       0.000  0.000  0.167
     ------------------------ ATOM  117 ------------------------
     Tr[ns(117)] =   3.00000
     eigenvalues:
       0.500  0.500  0.500
     eigenvectors (columns):
       1.000  0.000  0.000
       0.000  1.000  0.000
       0.000  0.000  1.000
     occupation matrix ns (before diag.):
       0.500  0.000  0.000
       0.000  0.500  0.000
       0.000  0.000  0.500
     ------------------------ ATOM  118 ------------------------
     Tr[ns(118)] =   3.00000
     eigenvalues:
       0.500  0.500  0.500
     eigenvectors (columns):
       1.000  0.000  0.000
       0.000  1.000  0.000
       0.000  0.000  1.000
     occupation matrix ns (before diag.):
       0.500  0.000  0.000
       0.000  0.500  0.000
       0.000  0.000  0.500
     ------------------------ ATOM  119 ------------------------
     Tr[ns(119)] =   3.00000
     eigenvalues:
       0.500  0.500  0.500
     eigenvectors (columns):
       1.000  0.000  0.000
       0.000  1.000  0.000
       0.000  0.000  1.000
     occupation matrix ns (before diag.):
       0.500  0.000  0.000
       0.000  0.500  0.000
       0.000  0.000  0.500
     ------------------------ ATOM  120 ------------------------
     Tr[ns(120)] =   3.00000
     eigenvalues:
       0.500  0.500  0.500
     eigenvectors (columns):
       1.000  0.000  0.000
       0.000  1.000  0.000
       0.000  0.000  1.000
     occupation matrix ns (before diag.):
       0.500  0.000  0.000
       0.000  0.500  0.000
       0.000  0.000  0.500
     ------------------------ ATOM  121 ------------------------
     Tr[ns(121)] =   1.00000
     eigenvalues:
       0.167  0.167  0.167
     eigenvectors (columns):
       1.000  0.000  0.000
       0.000  1.000  0.000
       0.000  0.000  1.000
     occupation matrix ns (before diag.):
       0.167  0.000  0.000
       0.000  0.167  0.000
       0.000  0.000  0.167
     ------------------------ ATOM  122 ------------------------
     Tr[ns(122)] =   1.00000
     eigenvalues:
       0.167  0.167  0.167
     eigenvectors (columns):
       1.000  0.000  0.000
       0.000  1.000  0.000
       0.000  0.000  1.000
     occupation matrix ns (before diag.):
       0.167  0.000  0.000
       0.000  0.167  0.000
       0.000  0.000  0.167
     ------------------------ ATOM  123 ------------------------
     Tr[ns(123)] =   1.00000
     eigenvalues:
       0.167  0.167  0.167
     eigenvectors (columns):
       1.000  0.000  0.000
       0.000  1.000  0.000
       0.000  0.000  1.000
     occupation matrix ns (before diag.):
       0.167  0.000  0.000
       0.000  0.167  0.000
       0.000  0.000  0.167
     ------------------------ ATOM  124 ------------------------
     Tr[ns(124)] =   1.00000
     eigenvalues:
       0.167  0.167  0.167
     eigenvectors (columns):
       1.000  0.000  0.000
       0.000  1.000  0.000
       0.000  0.000  1.000
     occupation matrix ns (before diag.):
       0.167  0.000  0.000
       0.000  0.167  0.000
       0.000  0.000  0.167
     ------------------------ ATOM  125 ------------------------
     Tr[ns(125)] =   3.00000
     eigenvalues:
       0.500  0.500  0.500
     eigenvectors (columns):
       1.000  0.000  0.000
       0.000  1.000  0.000
       0.000  0.000  1.000
     occupation matrix ns (before diag.):
       0.500  0.000  0.000
       0.000  0.500  0.000
       0.000  0.000  0.500
     ------------------------ ATOM  126 ------------------------
     Tr[ns(126)] =   3.00000
     eigenvalues:
       0.500  0.500  0.500
     eigenvectors (columns):
       1.000  0.000  0.000
       0.000  1.000  0.000
       0.000  0.000  1.000
     occupation matrix ns (before diag.):
       0.500  0.000  0.000
       0.000  0.500  0.000
       0.000  0.000  0.500
     ------------------------ ATOM  127 ------------------------
     Tr[ns(127)] =   3.00000
     eigenvalues:
       0.500  0.500  0.500
     eigenvectors (columns):
       1.000  0.000  0.000
       0.000  1.000  0.000
       0.000  0.000  1.000
     occupation matrix ns (before diag.):
       0.500  0.000  0.000
       0.000  0.500  0.000
       0.000  0.000  0.500
     ------------------------ ATOM  128 ------------------------
     Tr[ns(128)] =   3.00000
     eigenvalues:
       0.500  0.500  0.500
     eigenvectors (columns):
       1.000  0.000  0.000
       0.000  1.000  0.000
       0.000  0.000  1.000
     occupation matrix ns (before diag.):
       0.500  0.000  0.000
       0.000  0.500  0.000
       0.000  0.000  0.500
     ------------------------ ATOM  129 ------------------------
     Tr[ns(129)] =   1.00000
     eigenvalues:
       0.167  0.167  0.167
     eigenvectors (columns):
       1.000  0.000  0.000
       0.000  1.000  0.000
       0.000  0.000  1.000
     occupation matrix ns (before diag.):
       0.167  0.000  0.000
       0.000  0.167  0.000
       0.000  0.000  0.167
     ------------------------ ATOM  130 ------------------------
     Tr[ns(130)] =   1.00000
     eigenvalues:
       0.167  0.167  0.167
     eigenvectors (columns):
       1.000  0.000  0.000
       0.000  1.000  0.000
       0.000  0.000  1.000
     occupation matrix ns (before diag.):
       0.167  0.000  0.000
       0.000  0.167  0.000
       0.000  0.000  0.167
     ------------------------ ATOM  131 ------------------------
     Tr[ns(131)] =   1.00000
     eigenvalues:
       0.167  0.167  0.167
     eigenvectors (columns):
       1.000  0.000  0.000
       0.000  1.000  0.000
       0.000  0.000  1.000
     occupation matrix ns (before diag.):
       0.167  0.000  0.000
       0.000  0.167  0.000
       0.000  0.000  0.167
     ------------------------ ATOM  132 ------------------------
     Tr[ns(132)] =   1.00000
     eigenvalues:
       0.167  0.167  0.167
     eigenvectors (columns):
       1.000  0.000  0.000
       0.000  1.000  0.000
       0.000  0.000  1.000
     occupation matrix ns (before diag.):
       0.167  0.000  0.000
       0.000  0.167  0.000
       0.000  0.000  0.167
     ------------------------ ATOM  133 ------------------------
     Tr[ns(133)] =   3.00000
     eigenvalues:
       0.500  0.500  0.500
     eigenvectors (columns):
       1.000  0.000  0.000
       0.000  1.000  0.000
       0.000  0.000  1.000
     occupation matrix ns (before diag.):
       0.500  0.000  0.000
       0.000  0.500  0.000
       0.000  0.000  0.500
     ------------------------ ATOM  134 ------------------------
     Tr[ns(134)] =   3.00000
     eigenvalues:
       0.500  0.500  0.500
     eigenvectors (columns):
       1.000  0.000  0.000
       0.000  1.000  0.000
       0.000  0.000  1.000
     occupation matrix ns (before diag.):
       0.500  0.000  0.000
       0.000  0.500  0.000
       0.000  0.000  0.500
     ------------------------ ATOM  135 ------------------------
     Tr[ns(135)] =   3.00000
     eigenvalues:
       0.500  0.500  0.500
     eigenvectors (columns):
       1.000  0.000  0.000
       0.000  1.000  0.000
       0.000  0.000  1.000
     occupation matrix ns (before diag.):
       0.500  0.000  0.000
       0.000  0.500  0.000
       0.000  0.000  0.500
     ------------------------ ATOM  136 ------------------------
     Tr[ns(136)] =   3.00000
     eigenvalues:
       0.500  0.500  0.500
     eigenvectors (columns):
       1.000  0.000  0.000
       0.000  1.000  0.000
       0.000  0.000  1.000
     occupation matrix ns (before diag.):
       0.500  0.000  0.000
       0.000  0.500  0.000
       0.000  0.000  0.500
     ------------------------ ATOM  137 ------------------------
     Tr[ns(137)] =   1.00000
     eigenvalues:
       0.167  0.167  0.167
     eigenvectors (columns):
       1.000  0.000  0.000
       0.000  1.000  0.000
       0.000  0.000  1.000
     occupation matrix ns (before diag.):
       0.167  0.000  0.000
       0.000  0.167  0.000
       0.000  0.000  0.167
     ------------------------ ATOM  138 ------------------------
     Tr[ns(138)] =   1.00000
     eigenvalues:
       0.167  0.167  0.167
     eigenvectors (columns):
       1.000  0.000  0.000
       0.000  1.000  0.000
       0.000  0.000  1.000
     occupation matrix ns (before diag.):
       0.167  0.000  0.000
       0.000  0.167  0.000
       0.000  0.000  0.167
     ------------------------ ATOM  139 ------------------------
     Tr[ns(139)] =   1.00000
     eigenvalues:
       0.167  0.167  0.167
     eigenvectors (columns):
       1.000  0.000  0.000
       0.000  1.000  0.000
       0.000  0.000  1.000
     occupation matrix ns (before diag.):
       0.167  0.000  0.000
       0.000  0.167  0.000
       0.000  0.000  0.167
     ------------------------ ATOM  140 ------------------------
     Tr[ns(140)] =   1.00000
     eigenvalues:
       0.167  0.167  0.167
     eigenvectors (columns):
       1.000  0.000  0.000
       0.000  1.000  0.000
       0.000  0.000  1.000
     occupation matrix ns (before diag.):
       0.167  0.000  0.000
       0.000  0.167  0.000
       0.000  0.000  0.167
     ------------------------ ATOM  141 ------------------------
     Tr[ns(141)] =   3.00000
     eigenvalues:
       0.500  0.500  0.500
     eigenvectors (columns):
       1.000  0.000  0.000
       0.000  1.000  0.000
       0.000  0.000  1.000
     occupation matrix ns (before diag.):
       0.500  0.000  0.000
       0.000  0.500  0.000
       0.000  0.000  0.500
     ------------------------ ATOM  142 ------------------------
     Tr[ns(142)] =   3.00000
     eigenvalues:
       0.500  0.500  0.500
     eigenvectors (columns):
       1.000  0.000  0.000
       0.000  1.000  0.000
       0.000  0.000  1.000
     occupation matrix ns (before diag.):
       0.500  0.000  0.000
       0.000  0.500  0.000
       0.000  0.000  0.500
     ------------------------ ATOM  143 ------------------------
     Tr[ns(143)] =   3.00000
     eigenvalues:
       0.500  0.500  0.500
     eigenvectors (columns):
       1.000  0.000  0.000
       0.000  1.000  0.000
       0.000  0.000  1.000
     occupation matrix ns (before diag.):
       0.500  0.000  0.000
       0.000  0.500  0.000
       0.000  0.000  0.500
     ------------------------ ATOM  144 ------------------------
     Tr[ns(144)] =   3.00000
     eigenvalues:
       0.500  0.500  0.500
     eigenvectors (columns):
       1.000  0.000  0.000
       0.000  1.000  0.000
       0.000  0.000  1.000
     occupation matrix ns (before diag.):
       0.500  0.000  0.000
       0.000  0.500  0.000
       0.000  0.000  0.500
     ------------------------ ATOM  145 ------------------------
     Tr[ns(145)] =   1.00000
     eigenvalues:
       0.167  0.167  0.167
     eigenvectors (columns):
       1.000  0.000  0.000
       0.000  1.000  0.000
       0.000  0.000  1.000
     occupation matrix ns (before diag.):
       0.167  0.000  0.000
       0.000  0.167  0.000
       0.000  0.000  0.167
     ------------------------ ATOM  146 ------------------------
     Tr[ns(146)] =   1.00000
     eigenvalues:
       0.167  0.167  0.167
     eigenvectors (columns):
       1.000  0.000  0.000
       0.000  1.000  0.000
       0.000  0.000  1.000
     occupation matrix ns (before diag.):
       0.167  0.000  0.000
       0.000  0.167  0.000
       0.000  0.000  0.167
     ------------------------ ATOM  147 ------------------------
     Tr[ns(147)] =   1.00000
     eigenvalues:
       0.167  0.167  0.167
     eigenvectors (columns):
       1.000  0.000  0.000
       0.000  1.000  0.000
       0.000  0.000  1.000
     occupation matrix ns (before diag.):
       0.167  0.000  0.000
       0.000  0.167  0.000
       0.000  0.000  0.167
     ------------------------ ATOM  148 ------------------------
     Tr[ns(148)] =   1.00000
     eigenvalues:
       0.167  0.167  0.167
     eigenvectors (columns):
       1.000  0.000  0.000
       0.000  1.000  0.000
       0.000  0.000  1.000
     occupation matrix ns (before diag.):
       0.167  0.000  0.000
       0.000  0.167  0.000
       0.000  0.000  0.167
     ------------------------ ATOM  149 ------------------------
     Tr[ns(149)] =   3.00000
     eigenvalues:
       0.500  0.500  0.500
     eigenvectors (columns):
       1.000  0.000  0.000
       0.000  1.000  0.000
       0.000  0.000  1.000
     occupation matrix ns (before diag.):
       0.500  0.000  0.000
       0.000  0.500  0.000
       0.000  0.000  0.500
     ------------------------ ATOM  150 ------------------------
     Tr[ns(150)] =   3.00000
     eigenvalues:
       0.500  0.500  0.500
     eigenvectors (columns):
       1.000  0.000  0.000
       0.000  1.000  0.000
       0.000  0.000  1.000
     occupation matrix ns (before diag.):
       0.500  0.000  0.000
       0.000  0.500  0.000
       0.000  0.000  0.500
     ------------------------ ATOM  151 ------------------------
     Tr[ns(151)] =   3.00000
     eigenvalues:
       0.500  0.500  0.500
     eigenvectors (columns):
       1.000  0.000  0.000
       0.000  1.000  0.000
       0.000  0.000  1.000
     occupation matrix ns (before diag.):
       0.500  0.000  0.000
       0.000  0.500  0.000
       0.000  0.000  0.500
     ------------------------ ATOM  152 ------------------------
     Tr[ns(152)] =   3.00000
     eigenvalues:
       0.500  0.500  0.500
     eigenvectors (columns):
       1.000  0.000  0.000
       0.000  1.000  0.000
       0.000  0.000  1.000
     occupation matrix ns (before diag.):
       0.500  0.000  0.000
[...]
     0.9128   0.9202   0.9212   0.9277   0.9328   0.9364   0.9398   0.9498
     0.9571   0.9669   0.9763   0.9784   0.9811   0.9853   0.9932   1.0020
     1.0134   1.0216   1.0249   1.0286   1.0435   1.0491   1.0679   1.4294
     1.4317   1.4551   1.4653   1.4745   1.5169   1.5302   1.5483   1.5550
     1.5575   1.5724   1.5938   1.5997   1.6106   1.6407   1.6645   1.6662
     1.6818   1.6977   1.7306   1.7412   1.7539   1.7919   1.8070   1.8619
     1.8781   1.9370   1.9799   1.9865   1.9988   2.0162   2.0296   2.0527
     2.0624   2.0853   2.1051   2.1431   2.1757   3.0351   3.0713   3.1191
     3.1233   3.1478   3.1718   3.1799   3.2264   3.2414   3.2453   3.2858
     3.2889   3.2998   3.3025   3.3098   3.3165   3.3272   3.3323   3.3366
     3.3382   3.3493   3.3631   3.3689   3.3804   3.7523   3.7649   3.7663
     3.8057   3.8232   3.8376   3.8539   3.8586   3.8739   3.8987   3.9055
     3.9458   3.9844   3.9915   4.0048   4.0112   4.0223   4.0300   4.0350
     4.0369   4.0447   4.0597   4.0656   4.0726   4.0784   4.0856   4.0996
     4.1157   4.1208   4.1276   4.1394   4.1415   4.1501   4.1573   4.1610
     4.1656   4.1715   4.1818   4.1925   4.1982   4.2105   4.2246   4.2272
     4.2307   4.2482   4.2674   4.2818   4.3035   4.3464   4.4136   4.4312
     4.4464   4.4627   4.4695   4.4933   4.5050   4.5150   4.5165   4.5359
     4.5448   4.5650   4.5745   4.5930   4.5946   4.6049   4.6134   4.6263
     4.6371   4.6494   4.6537   4.6656   4.6678   4.6802   4.6939   4.6991
     4.7048   4.7079   4.7180   4.7223   4.7378   4.7447   4.7458   4.7707
     4.7730   4.8718   4.8772   4.9050   4.9285   4.9376   4.9512   4.9598
     4.9709   4.9752   4.9904   5.0167   5.0180   5.0256   5.0426   5.0521
     5.0599   5.0713   5.0799   5.0910   5.1008   5.1132   5.1197   5.1270
     5.1324   5.1400   5.1492   5.1604   5.1691   5.1742   5.1761   5.1851
     5.1892   5.1983   5.2063   5.2142   5.2223   5.2273   5.2348   5.2463
     5.2598   5.2691   5.2713   5.2868   5.2957   5.2973   5.3011   5.3060
     5.3176   5.3221   5.3356   5.3401   5.3468   5.3587   5.3771   5.3813
     5.3876   5.3971   5.4021   5.4028   5.4367   5.4391   5.4787   5.4895
     5.4956   5.5164   5.5269   5.5473   5.5658   5.5704   5.5794   5.5929
     5.6037   5.6176   5.6190   5.6364   5.6555   5.6662   5.6776   5.6842
     5.6954   5.7001   5.7204   5.7264   5.7400   5.9852   6.0267   6.0530
     6.0603   6.0672   6.0866   6.1050   6.1154   6.1345   6.1433   6.1599
     6.1678   6.1836   6.1971   6.2123   6.2254   6.2330   6.2497   6.2606
     6.2681   6.2918   6.3045   6.3136   6.3334   6.3557   6.3625   6.3899
     6.4107   6.4518   6.4913   6.5382   6.5409   6.5736   6.6005   6.6089
     6.6150   6.6917   6.7030   6.7187   6.7689   7.0390   7.0545   7.0720

     highest occupied level (ev):     7.0720

!    total energy              =  -35631.50623171 Ry
     estimated scf accuracy    <       0.00000030 Ry

     The total energy is the sum of the following terms:
     one-electron contribution =  -17788.92335739 Ry
     hartree contribution      =   10635.14251024 Ry
     xc contribution           =   -9354.75975371 Ry
     ewald contribution        =  -19125.13468398 Ry
     Hubbard energy            =       2.16905313 Ry

     convergence has been achieved in   7 iterations

     Forces acting on atoms (cartesian axes, Ry/au):

     atom    1 type  3   force =    -0.00020288    0.00035463    0.00090651
     atom    2 type  3   force =    -0.00094845   -0.00056870    0.00038271
     atom    3 type  3   force =    -0.00125566    0.00023211   -0.00143674
     atom    4 type  3   force =     0.00035098   -0.00043185    0.00038103
     atom    5 type  1   force =    -0.00108895    0.00055742   -0.00001815
     atom    6 type  4   force =    -0.00076475    0.00045047    0.00025898
     atom    7 type  4   force =     0.00017329    0.00031166   -0.00042749
     atom    8 type  4   force =    -0.00006198    0.00073635   -0.00014828
     atom    9 type  3   force =    -0.00108016    0.00054776   -0.00101784
     atom   10 type  3   force =     0.00011882   -0.00064878    0.00045108
     atom   11 type  3   force =     0.00055723   -0.00054574    0.00050198
     atom   12 type  3   force =    -0.00028263    0.00132546    0.00023255
     atom   13 type  1   force =    -0.00010851    0.00030281   -0.00085785
     atom   14 type  4   force =     0.00032812   -0.00020554   -0.00105167
     atom   15 type  4   force =     0.00033504   -0.00001567   -0.00120745
     atom   16 type  1   force =     0.00085437   -0.00007276   -0.00153925
     atom   17 type  3   force =     0.00055564   -0.00034765    0.00047616
     atom   18 type  3   force =     0.00070294   -0.00125372    0.00032465
     atom   19 type  3   force =     0.00161558    0.00037327   -0.00089928
     atom   20 type  3   force =     0.00107691   -0.00046762    0.00054615
     atom   21 type  4   force =    -0.00063999   -0.00020232    0.00029117
     atom   22 type  1   force =    -0.00110707    0.00144788    0.00054086
     atom   23 type  4   force =    -0.00042712    0.00000851    0.00054968
     atom   24 type  4   force =     0.00040488    0.00060110    0.00105062
     atom   25 type  3   force =    -0.00013138   -0.00141540    0.00130744
     atom   26 type  3   force =    -0.00103250    0.00041362    0.00041500
     atom   27 type  3   force =     0.00064820   -0.00038393   -0.00008492
     atom   28 type  3   force =    -0.00019594    0.00060438   -0.00009358
     atom   29 type  4   force =    -0.00017343   -0.00030594    0.00104457
     atom   30 type  4   force =    -0.00088052   -0.00059607    0.00021184
     atom   31 type  1   force =     0.00122008   -0.00027227    0.00035298
     atom   32 type  1   force =     0.00008682    0.00007611    0.00064827
     atom   33 type  3   force =     0.00000308    0.00090295   -0.00146658
     atom   34 type  3   force =     0.00203879    0.00213718    0.00002581
     atom   35 type  3   force =     0.00136879    0.00043935   -0.00025613
     atom   36 type  3   force =     0.00051790    0.00092961    0.00077952
     atom   37 type  4   force =    -0.00028237   -0.00029898   -0.00094143
     atom   38 type  4   force =    -0.00075104   -0.00066927   -0.00071483
     atom   39 type  4   force =     0.00006572   -0.00073129    0.00061507
     atom   40 type  4   force =    -0.00040096   -0.00035911   -0.00067429
     atom   41 type  3   force =     0.00015063   -0.00045604   -0.00012509
     atom   42 type  3   force =     0.00061860    0.00172004   -0.00028298
     atom   43 type  3   force =     0.00145777   -0.00087181   -0.00034314
     atom   44 type  3   force =    -0.00020124    0.00091670   -0.00267539
     atom   45 type  1   force =    -0.00053524   -0.00005308    0.00177051
     atom   46 type  1   force =    -0.00012996   -0.00093529    0.00169583
     atom   47 type  1   force =    -0.00027082    0.00042013   -0.00014285
     atom   48 type  4   force =     0.00065631   -0.00078643    0.00024740
     atom   49 type  3   force =    -0.00019986   -0.00067982    0.00152784
     atom   50 type  3   force =    -0.00133254   -0.00084339    0.00006566
     atom   51 type  3   force =    -0.00102004   -0.00059396    0.00045437
     atom   52 type  3   force =    -0.00099450    0.00009247    0.00049530
     atom   53 type  1   force =    -0.00030464    0.00005826    0.00029361
     atom   54 type  4   force =    -0.00030199    0.00001900   -0.00052608
     atom   55 type  4   force =     0.00017070    0.00015586   -0.00066141
     atom   56 type  1   force =    -0.00002157    0.00088399   -0.00029631
     atom   57 type  3   force =     0.00025974    0.00088854   -0.00007941
     atom   58 type  3   force =    -0.00003773   -0.00098056    0.00003689
     atom   59 type  3   force =    -0.00023333   -0.00090683    0.00015571
     atom   60 type  3   force =    -0.00098393   -0.00113010    0.00082030
     atom   61 type  4   force =    -0.00043981   -0.00058129   -0.00039188
     atom   62 type  4   force =    -0.00063718    0.00028887   -0.00043415
     atom   63 type  4   force =     0.00042428   -0.00013645   -0.00019573
     atom   64 type  1   force =     0.00024696    0.00071691   -0.00028848
     atom   65 type  3   force =     0.00027753    0.00042957   -0.00090611
     atom   66 type  3   force =     0.00008182   -0.00056050   -0.00091763
     atom   67 type  3   force =    -0.00077846    0.00063567   -0.00100500
     atom   68 type  3   force =     0.00048682   -0.00020154    0.00004970
     atom   69 type  4   force =    -0.00069386    0.00069197    0.00039282
     atom   70 type  1   force =    -0.00047929    0.00034539    0.00128023
     atom   71 type  4   force =     0.00004924    0.00042057    0.00082707
     atom   72 type  4   force =     0.00022432   -0.00016719    0.00050242
     atom   73 type  3   force =    -0.00078306    0.00091303   -0.00092821
     atom   74 type  3   force =     0.00031160    0.00155314   -0.00101527
     atom   75 type  3   force =    -0.00002791    0.00168380   -0.00029061
     atom   76 type  3   force =     0.00040664    0.00073546   -0.00111981
     atom   77 type  1   force =     0.00154238    0.00039268   -0.00008817
     atom   78 type  1   force =     0.00079453    0.00069012   -0.00026356
     atom   79 type  1   force =    -0.00009016   -0.00008770   -0.00052495
     atom   80 type  1   force =     0.00002627   -0.00046110    0.00023960
     atom   81 type  3   force =    -0.00166510   -0.00068520    0.00105344
     atom   82 type  3   force =    -0.00118251    0.00092394    0.00090976
     atom   83 type  3   force =     0.00137637    0.00114194    0.00229233
     atom   84 type  3   force =     0.00063084    0.00104501   -0.00078032
     atom   85 type  1   force =     0.00122581    0.00017438   -0.00081452
     atom   86 type  4   force =     0.00094544    0.00024615   -0.00016484
     atom   87 type  1   force =    -0.00002272    0.00001496   -0.00134517
     atom   88 type  4   force =     0.00056779    0.00100459    0.00044933
     atom   89 type  3   force =     0.00030919    0.00081424    0.00157532
     atom   90 type  3   force =     0.00098109   -0.00051995   -0.00046132
     atom   91 type  3   force =    -0.00088806    0.00185064   -0.00084266
     atom   92 type  3   force =    -0.00110037   -0.00124636    0.00068554
     atom   93 type  4   force =     0.00095198    0.00041202    0.00034004
     atom   94 type  4   force =     0.00053788    0.00030345   -0.00009875
     atom   95 type  1   force =     0.00061797    0.00046806    0.00151495
     atom   96 type  4   force =    -0.00002363   -0.00008554    0.00064455
     atom   97 type  3   force =     0.00064021   -0.00153142   -0.00014349
     atom   98 type  3   force =    -0.00059911   -0.00134549    0.00034210
     atom   99 type  3   force =     0.00085539   -0.00061865   -0.00002809
     atom  100 type  3   force =    -0.00004175   -0.00069656   -0.00050591
     atom  101 type  4   force =     0.00021914    0.00004947    0.00079811
     atom  102 type  1   force =     0.00143197   -0.00105813   -0.00076842
     atom  103 type  1   force =     0.00043892    0.00027871   -0.00090300
     atom  104 type  1   force =     0.00146039   -0.00047472    0.00034820
     atom  105 type  3   force =    -0.00155781    0.00034184   -0.00030912
     atom  106 type  3   force =    -0.00113836    0.00049906    0.00026580
     atom  107 type  3   force =     0.00019392   -0.00054299    0.00011637
     atom  108 type  3   force =     0.00097848    0.00002248   -0.00003286
     atom  109 type  4   force =     0.00041620   -0.00000348   -0.00080398
     atom  110 type  4   force =     0.00090150   -0.00042787    0.00075621
     atom  111 type  1   force =     0.00083569    0.00051076    0.00022500
     atom  112 type  1   force =     0.00039590   -0.00066704   -0.00138792
     atom  113 type  3   force =    -0.00020453   -0.00011531    0.00013263
     atom  114 type  3   force =     0.00113745   -0.00082541   -0.00109426
     atom  115 type  3   force =    -0.00063497   -0.00103117    0.00065770
     atom  116 type  3   force =    -0.00138742   -0.00049925   -0.00042001
     atom  117 type  1   force =     0.00087464    0.00029835    0.00031900
     atom  118 type  4   force =     0.00091893   -0.00021969    0.00057684
     atom  119 type  4   force =     0.00033233   -0.00059648    0.00054350
     atom  120 type  4   force =     0.00029272   -0.00007297    0.00021190
     atom  121 type  3   force =     0.00057768   -0.00065591    0.00031463
     atom  122 type  3   force =    -0.00110621   -0.00056672   -0.00054883
     atom  123 type  3   force =    -0.00013824   -0.00151425   -0.00147909
     atom  124 type  3   force =    -0.00031598   -0.00018802   -0.00049391
     atom  125 type  1   force =     0.00130668   -0.00015008    0.00077346
     atom  126 type  1   force =     0.00100705    0.00021393   -0.00035618
     atom  127 type  1   force =     0.00040226    0.00081872    0.00002158
     atom  128 type  1   force =     0.00103380   -0.00055413   -0.00033941
     atom  129 type  3   force =    -0.00112100   -0.00049004    0.00173026
     atom  130 type  3   force =    -0.00108867   -0.00106322    0.00093845
     atom  131 type  3   force =    -0.00004715   -0.00020854    0.00106036
     atom  132 type  3   force =    -0.00005785   -0.00073830    0.00107798
     atom  133 type  4   force =     0.00036195   -0.00008187   -0.00029219
     atom  134 type  4   force =     0.00008819   -0.00018241   -0.00033831
     atom  135 type  4   force =     0.00021698    0.00009842   -0.00015849
     atom  136 type  1   force =     0.00131742    0.00104802   -0.00108011
     atom  137 type  3   force =     0.00072327    0.00103548   -0.00117371
     atom  138 type  3   force =     0.00012586    0.00081456   -0.00217154
     atom  139 type  3   force =    -0.00156867    0.00038800   -0.00116641
     atom  140 type  3   force =    -0.00045368   -0.00086625   -0.00001616
     atom  141 type  1   force =     0.00073104   -0.00068239    0.00051575
     atom  142 type  4   force =     0.00088806    0.00031724    0.00015076
     atom  143 type  1   force =     0.00065237   -0.00090674    0.00028723
     atom  144 type  4   force =    -0.00007820    0.00050079    0.00056690
     atom  145 type  3   force =     0.00100103    0.00129330   -0.00105264
     atom  146 type  3   force =     0.00072876    0.00031275   -0.00054545
     atom  147 type  3   force =     0.00042493    0.00028889    0.00065365
     atom  148 type  3   force =    -0.00046205   -0.00005625    0.00065273
     atom  149 type  4   force =    -0.00013467    0.00040686    0.00091102
     atom  150 type  4   force =     0.00026057    0.00092362   -0.00040385
     atom  151 type  1   force =    -0.00004961    0.00028723   -0.00103508
     atom  152 type  1   force =    -0.00078349    0.00022138   -0.00012756
     atom  153 type  3   force =     0.00116720   -0.00075527   -0.00036496
     atom  154 type  3   force =    -0.00111869   -0.00106158    0.00003103
     atom  155 type  3   force =    -0.00091330   -0.00040494   -0.00005541
     atom  156 type  3   force =    -0.00013638   -0.00088363   -0.00174740
     atom  157 type  4   force =     0.00030623    0.00021961   -0.00000519
     atom  158 type  1   force =     0.00048589    0.00072982   -0.00058229
     atom  159 type  1   force =     0.00010659    0.00086446    0.00067738
     atom  160 type  1   force =    -0.00069793   -0.00017602   -0.00092797
     atom  161 type  3   force =     0.00000362    0.00030108   -0.00073602
     atom  162 type  3   force =    -0.00068176   -0.00069837    0.00105922
     atom  163 type  3   force =    -0.00131331   -0.00074204    0.00021380
     atom  164 type  3   force =    -0.00067561   -0.00104461   -0.00079146
     atom  165 type  4   force =    -0.00081950   -0.00009478    0.00074152
     atom  166 type  1   force =    -0.00115067   -0.00031180    0.00189541
     atom  167 type  4   force =    -0.00037394    0.00001427    0.00058385
     atom  168 type  1   force =    -0.00058651    0.00095349   -0.00009875
     atom  169 type  3   force =     0.00014032    0.00000462    0.00010664
     atom  170 type  3   force =    -0.00067368   -0.00107320   -0.00100777
     atom  171 type  3   force =    -0.00024201   -0.00010089    0.00086405
     atom  172 type  3   force =    -0.00151816    0.00129114    0.00166842
     atom  173 type  1   force =    -0.00019898   -0.00061277   -0.00043204
     atom  174 type  4   force =     0.00030352   -0.00020640   -0.00032824
     atom  175 type  1   force =    -0.00118550   -0.00087357   -0.00012179
     atom  176 type  4   force =    -0.00047697   -0.00030695   -0.00000826
     atom  177 type  3   force =    -0.00028213   -0.00027701   -0.00132678
     atom  178 type  3   force =    -0.00084048    0.00029413    0.00034335
     atom  179 type  3   force =    -0.00072957   -0.00015309    0.00007459
     atom  180 type  3   force =     0.00137239   -0.00050263   -0.00088392
     atom  181 type  1   force =    -0.00053799   -0.00017720   -0.00095428
     atom  182 type  4   force =    -0.00039369    0.00029948   -0.00138890
     atom  183 type  1   force =    -0.00015415   -0.00006403   -0.00066901
     atom  184 type  1   force =    -0.00076669   -0.00014410   -0.00073821
     atom  185 type  3   force =    -0.00152169    0.00002707   -0.00024194
     atom  186 type  3   force =    -0.00025331    0.00014355    0.00116967
     atom  187 type  3   force =    -0.00138164   -0.00046242    0.00068779
     atom  188 type  3   force =    -0.00018627    0.00101754    0.00011900
     atom  189 type  1   force =     0.00008699   -0.00088293   -0.00003373
     atom  190 type  1   force =     0.00025317   -0.00085086    0.00071039
     atom  191 type  1   force =    -0.00065980    0.00011427    0.00110478
     atom  192 type  4   force =    -0.00036452   -0.00012779    0.00092830
     atom  193 type  3   force =     0.00101983   -0.00133037   -0.00000915
     atom  194 type  3   force =     0.00256300    0.00033002    0.00000539
     atom  195 type  3   force =     0.00103149   -0.00019239   -0.00110306
     atom  196 type  3   force =    -0.00017008    0.00041473    0.00090389
     atom  197 type  4   force =     0.00028139    0.00021929    0.00034743
     atom  198 type  1   force =     0.00064353    0.00023443    0.00036974
     atom  199 type  1   force =     0.00008776    0.00010400    0.00066634
     atom  200 type  4   force =    -0.00031022   -0.00026785    0.00103847
     atom  201 type  3   force =     0.00023242   -0.00036530    0.00125094
     atom  202 type  3   force =     0.00044933   -0.00042178    0.00083912
     atom  203 type  3   force =     0.00032117    0.00093225    0.00021104
     atom  204 type  3   force =     0.00021637   -0.00079930   -0.00151124
     atom  205 type  1   force =    -0.00028358    0.00047270   -0.00181008
     atom  206 type  4   force =    -0.00030703    0.00015396    0.00011474
     atom  207 type  4   force =    -0.00098602    0.00023612   -0.00000077
     atom  208 type  4   force =    -0.00025279    0.00024568   -0.00064286
     atom  209 type  3   force =    -0.00023682    0.00092315   -0.00062204
     atom  210 type  3   force =     0.00171779    0.00052387    0.00026255
     atom  211 type  3   force =    -0.00084607   -0.00033853    0.00030714
     atom  212 type  3   force =     0.00021317   -0.00044169   -0.00028447
     atom  213 type  1   force =     0.00024861    0.00086404    0.00179655
     atom  214 type  1   force =    -0.00094814   -0.00025555   -0.00051776
     atom  215 type  4   force =    -0.00033696    0.00071712    0.00044732
     atom  216 type  1   force =    -0.00109935    0.00037613    0.00086413

     Total force =     0.019349     Total SCF correction =     0.003811
     SCF correction compared to forces is large: reduce conv_thr to get better values


     Computing stress (Cartesian axis) and pressure

