
     Program PWSCF v.7.3.1 starts on 28Jan2026 at 13:40:16 

     This program is part of the open-source Quantum ESPRESSO suite
     for quantum simulation of materials; please cite
         "P. Giannozzi et al., J. Phys.:Condens. Matter 21 395502 (2009);
         "P. Giannozzi et al., J. Phys.:Condens. Matter 29 465901 (2017);
         "P. Giannozzi et al., J. Chem. Phys. 152 154105 (2020);
          URL http://www.quantum-espresso.org", 
     in publications or presentations arising from this work. More details at
     http://www.quantum-espresso.org/quote

     Parallel version (MPI), running on   512 processors

     MPI processes distributed on     4 nodes
     233404 MiB available memory on the printing compute node when the environment starts

     Reading input from In1.0Ga0.0As0.5Sb0.5_cube_3x3x3.4.relax.in

     Current dimensions of program PWSCF are:
     Max number of different atomic species (ntypx) = 10
     Max number of k-points (npk) =  40000
     Max angular momentum in pseudopotentials (lmaxx) =  4

     gamma-point specific algorithms are used

     R & G space division:  proc/nbgrp/npool/nimage =     512
     WARNING: too many processors for an effective parallelization!
     wavefunctions fft division:  task group distribution
                                  #TG    x Z-proc =      16     32
     Subspace diagonalization in iterative solution of the eigenvalue problem:
     one sub-group per band group will be used
     custom distributed-memory algorithm (size of sub-group: 15* 15 procs)


     Parallelization info
     --------------------
     sticks:   dense  smooth     PW     G-vecs:    dense   smooth      PW
     Min          94      94     22                15934    15934    1958
     Max          96      96     24                15988    15988    2012
     Sum       49049   49049  12281              8176129  8176129 1021717

     Using Pencil Decomposition



     bravais-lattice index     =            1
     lattice parameter (alat)  =      35.8405  a.u.
     unit-cell volume          =   46038.5111 (a.u.)^3
     number of atoms/cell      =          216
     number of atomic types    =            4
     number of electrons       =      3024.00
     number of Kohn-Sham states=         1512
     kinetic-energy cutoff     =     120.0000  Ry
     charge density cutoff     =     480.0000  Ry
     scf convergence threshold =      1.0E-05
     mixing beta               =       0.6500
     number of iterations used =            8  plain     mixing
     energy convergence thresh.=      1.0E-04
     force convergence thresh. =      4.5E-04
     press convergence thresh. =      5.0E-01
     Exchange-correlation= PBE
                           (   1   4   3   4   0   0   0)
     nstep                     =           50

     Hubbard projectors: atomic
     Hubbard parameters of DFT+U (Dudarev formulation) in eV:
     U(As-4p) =  3.2600
     U(Ga-4p) = -2.8000
     U(In-5p) = -1.0150
     U(Sb-5p) =  3.1600

     Internal variables: lda_plus_u =T, lda_plus_u_kind = 0

     celldm(1)=  35.840475  celldm(2)=   0.000000  celldm(3)=   0.000000
     celldm(4)=   0.000000  celldm(5)=   0.000000  celldm(6)=   0.000000

     crystal axes: (cart. coord. in units of alat)
               a(1) = (   1.000000   0.000000   0.000000 )  
               a(2) = (   0.000000   1.000000   0.000000 )  
               a(3) = (   0.000000   0.000000   1.000000 )  

     reciprocal axes: (cart. coord. in units 2 pi/alat)
               b(1) = (  1.000000  0.000000  0.000000 )  
               b(2) = (  0.000000  1.000000  0.000000 )  
               b(3) = (  0.000000  0.000000  1.000000 )  


     PseudoPot. # 1 for As read from file:
     /work/i254/i254/gentles/data/pseudos/As.pbe.NC-SR.standard.v0.5.UPF
     MD5 check sum: bfe1a874457ce592347346129958e7cf
     Pseudo is Norm-conserving + core correction, Zval = 15.0
     Generated using ONCVPSP code by D. R. Hamann
     Using radial grid of 1358 points,  6 beta functions with: 
                l(1) =   0
                l(2) =   0
                l(3) =   1
                l(4) =   1
                l(5) =   2
                l(6) =   2

     PseudoPot. # 2 for Ga read from file:
     /work/i254/i254/gentles/data/pseudos/Ga.pbe.NC-SR.standard.v0.5.UPF
     MD5 check sum: 2bb81bf6f0a8d9832cf3329850435ecf
     Pseudo is Norm-conserving + core correction, Zval = 13.0
     Generated using ONCVPSP code by D. R. Hamann
     Using radial grid of 1902 points,  6 beta functions with: 
                l(1) =   0
                l(2) =   0
                l(3) =   1
                l(4) =   1
                l(5) =   2
                l(6) =   2

     PseudoPot. # 3 for In read from file:
     /work/i254/i254/gentles/data/pseudos/In.pbe.NC-SR.standard.v0.5.UPF
     MD5 check sum: 835f4bf908c982ff75c88e16816a8d7f
     Pseudo is Norm-conserving + core correction, Zval = 13.0
     Generated using ONCVPSP code by D. R. Hamann
     Using radial grid of 1964 points,  6 beta functions with: 
                l(1) =   0
                l(2) =   0
                l(3) =   1
                l(4) =   1
                l(5) =   2
                l(6) =   2

     PseudoPot. # 4 for Sb read from file:
     /work/i254/i254/gentles/data/pseudos/Sb.pbe.NC-SR.standard.v0.5.UPF
     MD5 check sum: 127f69b6101c45666faeae1b5d611565
     Pseudo is Norm-conserving + core correction, Zval = 15.0
     Generated using ONCVPSP code by D. R. Hamann
     Using radial grid of 1434 points,  6 beta functions with: 
                l(1) =   0
                l(2) =   0
                l(3) =   1
                l(4) =   1
                l(5) =   2
                l(6) =   2

     atomic species   valence    mass     pseudopotential
     As               15.00    74.92160     As( 1.00)
     Ga               13.00    69.72300     Ga( 1.00)
     In               13.00   114.81800     In( 1.00)
     Sb               15.00   121.76000     Sb( 1.00)

     No symmetry found



   Cartesian axes

     site n.     atom                  positions (alat units)
         1        In     tau(   1) = (   0.0000000   0.0000000   0.0000000  )
         2        In     tau(   2) = (   0.0000000   0.1666670   0.1666670  )
         3        In     tau(   3) = (   0.1666670   0.0000000   0.1666670  )
         4        In     tau(   4) = (   0.1666670   0.1666670   0.0000000  )
         5        As     tau(   5) = (   0.0833330   0.0833330   0.0833330  )
         6        Sb     tau(   6) = (   0.0833330   0.2500000   0.2500000  )
         7        Sb     tau(   7) = (   0.2500000   0.0833330   0.2500000  )
         8        Sb     tau(   8) = (   0.2500000   0.2500000   0.0833330  )
         9        In     tau(   9) = (   0.0000000   0.0000000   0.3333330  )
        10        In     tau(  10) = (   0.0000000   0.1666670   0.5000000  )
        11        In     tau(  11) = (   0.1666670   0.0000000   0.5000000  )
        12        In     tau(  12) = (   0.1666670   0.1666670   0.3333330  )
        13        As     tau(  13) = (   0.0833330   0.0833330   0.4166670  )
        14        Sb     tau(  14) = (   0.0833330   0.2500000   0.5833330  )
        15        Sb     tau(  15) = (   0.2500000   0.0833330   0.5833330  )
        16        As     tau(  16) = (   0.2500000   0.2500000   0.4166670  )
        17        In     tau(  17) = (   0.0000000   0.0000000   0.6666670  )
        18        In     tau(  18) = (   0.0000000   0.1666670   0.8333330  )
        19        In     tau(  19) = (   0.1666670   0.0000000   0.8333330  )
        20        In     tau(  20) = (   0.1666670   0.1666670   0.6666670  )
        21        Sb     tau(  21) = (   0.0833330   0.0833330   0.7500000  )
        22        As     tau(  22) = (   0.0833330   0.2500000   0.9166670  )
        23        Sb     tau(  23) = (   0.2500000   0.0833330   0.9166670  )
        24        Sb     tau(  24) = (   0.2500000   0.2500000   0.7500000  )
        25        In     tau(  25) = (   0.0000000   0.3333330   0.0000000  )
        26        In     tau(  26) = (   0.0000000   0.5000000   0.1666670  )
        27        In     tau(  27) = (   0.1666670   0.3333330   0.1666670  )
        28        In     tau(  28) = (   0.1666670   0.5000000   0.0000000  )
        29        Sb     tau(  29) = (   0.0833330   0.4166670   0.0833330  )
        30        Sb     tau(  30) = (   0.0833330   0.5833330   0.2500000  )
        31        As     tau(  31) = (   0.2500000   0.4166670   0.2500000  )
        32        As     tau(  32) = (   0.2500000   0.5833330   0.0833330  )
        33        In     tau(  33) = (   0.0000000   0.3333330   0.3333330  )
        34        In     tau(  34) = (   0.0000000   0.5000000   0.5000000  )
        35        In     tau(  35) = (   0.1666670   0.3333330   0.5000000  )
        36        In     tau(  36) = (   0.1666670   0.5000000   0.3333330  )
        37        Sb     tau(  37) = (   0.0833330   0.4166670   0.4166670  )
        38        Sb     tau(  38) = (   0.0833330   0.5833330   0.5833330  )
        39        Sb     tau(  39) = (   0.2500000   0.4166670   0.5833330  )
        40        Sb     tau(  40) = (   0.2500000   0.5833330   0.4166670  )
        41        In     tau(  41) = (   0.0000000   0.3333330   0.6666670  )
        42        In     tau(  42) = (   0.0000000   0.5000000   0.8333330  )
        43        In     tau(  43) = (   0.1666670   0.3333330   0.8333330  )
        44        In     tau(  44) = (   0.1666670   0.5000000   0.6666670  )
        45        As     tau(  45) = (   0.0833330   0.4166670   0.7500000  )
        46        As     tau(  46) = (   0.0833330   0.5833330   0.9166670  )
        47        As     tau(  47) = (   0.2500000   0.4166670   0.9166670  )
        48        Sb     tau(  48) = (   0.2500000   0.5833330   0.7500000  )
        49        In     tau(  49) = (   0.0000000   0.6666670   0.0000000  )
        50        In     tau(  50) = (   0.0000000   0.8333330   0.1666670  )
        51        In     tau(  51) = (   0.1666670   0.6666670   0.1666670  )
        52        In     tau(  52) = (   0.1666670   0.8333330   0.0000000  )
        53        As     tau(  53) = (   0.0833330   0.7500000   0.0833330  )
        54        Sb     tau(  54) = (   0.0833330   0.9166670   0.2500000  )
        55        Sb     tau(  55) = (   0.2500000   0.7500000   0.2500000  )
        56        As     tau(  56) = (   0.2500000   0.9166670   0.0833330  )
        57        In     tau(  57) = (   0.0000000   0.6666670   0.3333330  )
        58        In     tau(  58) = (   0.0000000   0.8333330   0.5000000  )
        59        In     tau(  59) = (   0.1666670   0.6666670   0.5000000  )
        60        In     tau(  60) = (   0.1666670   0.8333330   0.3333330  )
        61        Sb     tau(  61) = (   0.0833330   0.7500000   0.4166670  )
        62        Sb     tau(  62) = (   0.0833330   0.9166670   0.5833330  )
        63        Sb     tau(  63) = (   0.2500000   0.7500000   0.5833330  )
        64        As     tau(  64) = (   0.2500000   0.9166670   0.4166670  )
        65        In     tau(  65) = (   0.0000000   0.6666670   0.6666670  )
        66        In     tau(  66) = (   0.0000000   0.8333330   0.8333330  )
        67        In     tau(  67) = (   0.1666670   0.6666670   0.8333330  )
        68        In     tau(  68) = (   0.1666670   0.8333330   0.6666670  )
        69        Sb     tau(  69) = (   0.0833330   0.7500000   0.7500000  )
        70        As     tau(  70) = (   0.0833330   0.9166670   0.9166670  )
        71        Sb     tau(  71) = (   0.2500000   0.7500000   0.9166670  )
        72        Sb     tau(  72) = (   0.2500000   0.9166670   0.7500000  )
        73        In     tau(  73) = (   0.3333330   0.0000000   0.0000000  )
        74        In     tau(  74) = (   0.3333330   0.1666670   0.1666670  )
        75        In     tau(  75) = (   0.5000000   0.0000000   0.1666670  )
        76        In     tau(  76) = (   0.5000000   0.1666670   0.0000000  )
        77        As     tau(  77) = (   0.4166670   0.0833330   0.0833330  )
        78        As     tau(  78) = (   0.4166670   0.2500000   0.2500000  )
        79        As     tau(  79) = (   0.5833330   0.0833330   0.2500000  )
        80        As     tau(  80) = (   0.5833330   0.2500000   0.0833330  )
        81        In     tau(  81) = (   0.3333330   0.0000000   0.3333330  )
        82        In     tau(  82) = (   0.3333330   0.1666670   0.5000000  )
        83        In     tau(  83) = (   0.5000000   0.0000000   0.5000000  )
        84        In     tau(  84) = (   0.5000000   0.1666670   0.3333330  )
        85        As     tau(  85) = (   0.4166670   0.0833330   0.4166670  )
        86        Sb     tau(  86) = (   0.4166670   0.2500000   0.5833330  )
        87        As     tau(  87) = (   0.5833330   0.0833330   0.5833330  )
        88        Sb     tau(  88) = (   0.5833330   0.2500000   0.4166670  )
        89        In     tau(  89) = (   0.3333330   0.0000000   0.6666670  )
        90        In     tau(  90) = (   0.3333330   0.1666670   0.8333330  )
        91        In     tau(  91) = (   0.5000000   0.0000000   0.8333330  )
        92        In     tau(  92) = (   0.5000000   0.1666670   0.6666670  )
        93        Sb     tau(  93) = (   0.4166670   0.0833330   0.7500000  )
        94        Sb     tau(  94) = (   0.4166670   0.2500000   0.9166670  )
        95        As     tau(  95) = (   0.5833330   0.0833330   0.9166670  )
        96        Sb     tau(  96) = (   0.5833330   0.2500000   0.7500000  )
        97        In     tau(  97) = (   0.3333330   0.3333330   0.0000000  )
        98        In     tau(  98) = (   0.3333330   0.5000000   0.1666670  )
        99        In     tau(  99) = (   0.5000000   0.3333330   0.1666670  )
       100        In     tau( 100) = (   0.5000000   0.5000000   0.0000000  )
       101        Sb     tau( 101) = (   0.4166670   0.4166670   0.0833330  )
       102        As     tau( 102) = (   0.4166670   0.5833330   0.2500000  )
       103        As     tau( 103) = (   0.5833330   0.4166670   0.2500000  )
       104        As     tau( 104) = (   0.5833330   0.5833330   0.0833330  )
       105        In     tau( 105) = (   0.3333330   0.3333330   0.3333330  )
       106        In     tau( 106) = (   0.3333330   0.5000000   0.5000000  )
       107        In     tau( 107) = (   0.5000000   0.3333330   0.5000000  )
       108        In     tau( 108) = (   0.5000000   0.5000000   0.3333330  )
       109        Sb     tau( 109) = (   0.4166670   0.4166670   0.4166670  )
       110        Sb     tau( 110) = (   0.4166670   0.5833330   0.5833330  )
       111        As     tau( 111) = (   0.5833330   0.4166670   0.5833330  )
       112        As     tau( 112) = (   0.5833330   0.5833330   0.4166670  )
       113        In     tau( 113) = (   0.3333330   0.3333330   0.6666670  )
       114        In     tau( 114) = (   0.3333330   0.5000000   0.8333330  )
       115        In     tau( 115) = (   0.5000000   0.3333330   0.8333330  )
       116        In     tau( 116) = (   0.5000000   0.5000000   0.6666670  )
       117        As     tau( 117) = (   0.4166670   0.4166670   0.7500000  )
       118        Sb     tau( 118) = (   0.4166670   0.5833330   0.9166670  )
       119        Sb     tau( 119) = (   0.5833330   0.4166670   0.9166670  )
       120        Sb     tau( 120) = (   0.5833330   0.5833330   0.7500000  )
       121        In     tau( 121) = (   0.3333330   0.6666670   0.0000000  )
       122        In     tau( 122) = (   0.3333330   0.8333330   0.1666670  )
       123        In     tau( 123) = (   0.5000000   0.6666670   0.1666670  )
       124        In     tau( 124) = (   0.5000000   0.8333330   0.0000000  )
       125        As     tau( 125) = (   0.4166670   0.7500000   0.0833330  )
       126        As     tau( 126) = (   0.4166670   0.9166670   0.2500000  )
       127        As     tau( 127) = (   0.5833330   0.7500000   0.2500000  )
       128        As     tau( 128) = (   0.5833330   0.9166670   0.0833330  )
       129        In     tau( 129) = (   0.3333330   0.6666670   0.3333330  )
       130        In     tau( 130) = (   0.3333330   0.8333330   0.5000000  )
       131        In     tau( 131) = (   0.5000000   0.6666670   0.5000000  )
       132        In     tau( 132) = (   0.5000000   0.8333330   0.3333330  )
       133        Sb     tau( 133) = (   0.4166670   0.7500000   0.4166670  )
       134        Sb     tau( 134) = (   0.4166670   0.9166670   0.5833330  )
       135        Sb     tau( 135) = (   0.5833330   0.7500000   0.5833330  )
       136        As     tau( 136) = (   0.5833330   0.9166670   0.4166670  )
       137        In     tau( 137) = (   0.3333330   0.6666670   0.6666670  )
       138        In     tau( 138) = (   0.3333330   0.8333330   0.8333330  )
       139        In     tau( 139) = (   0.5000000   0.6666670   0.8333330  )
       140        In     tau( 140) = (   0.5000000   0.8333330   0.6666670  )
       141        As     tau( 141) = (   0.4166670   0.7500000   0.7500000  )
       142        Sb     tau( 142) = (   0.4166670   0.9166670   0.9166670  )
       143        As     tau( 143) = (   0.5833330   0.7500000   0.9166670  )
       144        Sb     tau( 144) = (   0.5833330   0.9166670   0.7500000  )
       145        In     tau( 145) = (   0.6666670   0.0000000   0.0000000  )
       146        In     tau( 146) = (   0.6666670   0.1666670   0.1666670  )
       147        In     tau( 147) = (   0.8333330   0.0000000   0.1666670  )
       148        In     tau( 148) = (   0.8333330   0.1666670   0.0000000  )
       149        Sb     tau( 149) = (   0.7500000   0.0833330   0.0833330  )
       150        Sb     tau( 150) = (   0.7500000   0.2500000   0.2500000  )
       151        As     tau( 151) = (   0.9166670   0.0833330   0.2500000  )
       152        As     tau( 152) = (   0.9166670   0.2500000   0.0833330  )
       153        In     tau( 153) = (   0.6666670   0.0000000   0.3333330  )
       154        In     tau( 154) = (   0.6666670   0.1666670   0.5000000  )
       155        In     tau( 155) = (   0.8333330   0.0000000   0.5000000  )
       156        In     tau( 156) = (   0.8333330   0.1666670   0.3333330  )
       157        Sb     tau( 157) = (   0.7500000   0.0833330   0.4166670  )
       158        As     tau( 158) = (   0.7500000   0.2500000   0.5833330  )
       159        As     tau( 159) = (   0.9166670   0.0833330   0.5833330  )
       160        As     tau( 160) = (   0.9166670   0.2500000   0.4166670  )
       161        In     tau( 161) = (   0.6666670   0.0000000   0.6666670  )
       162        In     tau( 162) = (   0.6666670   0.1666670   0.8333330  )
       163        In     tau( 163) = (   0.8333330   0.0000000   0.8333330  )
       164        In     tau( 164) = (   0.8333330   0.1666670   0.6666670  )
       165        Sb     tau( 165) = (   0.7500000   0.0833330   0.7500000  )
       166        As     tau( 166) = (   0.7500000   0.2500000   0.9166670  )
       167        Sb     tau( 167) = (   0.9166670   0.0833330   0.9166670  )
       168        As     tau( 168) = (   0.9166670   0.2500000   0.7500000  )
       169        In     tau( 169) = (   0.6666670   0.3333330   0.0000000  )
       170        In     tau( 170) = (   0.6666670   0.5000000   0.1666670  )
       171        In     tau( 171) = (   0.8333330   0.3333330   0.1666670  )
       172        In     tau( 172) = (   0.8333330   0.5000000   0.0000000  )
       173        As     tau( 173) = (   0.7500000   0.4166670   0.0833330  )
       174        Sb     tau( 174) = (   0.7500000   0.5833330   0.2500000  )
       175        As     tau( 175) = (   0.9166670   0.4166670   0.2500000  )
       176        Sb     tau( 176) = (   0.9166670   0.5833330   0.0833330  )
       177        In     tau( 177) = (   0.6666670   0.3333330   0.3333330  )
       178        In     tau( 178) = (   0.6666670   0.5000000   0.5000000  )
       179        In     tau( 179) = (   0.8333330   0.3333330   0.5000000  )
       180        In     tau( 180) = (   0.8333330   0.5000000   0.3333330  )
       181        As     tau( 181) = (   0.7500000   0.4166670   0.4166670  )
       182        Sb     tau( 182) = (   0.7500000   0.5833330   0.5833330  )
       183        As     tau( 183) = (   0.9166670   0.4166670   0.5833330  )
       184        As     tau( 184) = (   0.9166670   0.5833330   0.4166670  )
       185        In     tau( 185) = (   0.6666670   0.3333330   0.6666670  )
       186        In     tau( 186) = (   0.6666670   0.5000000   0.8333330  )
       187        In     tau( 187) = (   0.8333330   0.3333330   0.8333330  )
       188        In     tau( 188) = (   0.8333330   0.5000000   0.6666670  )
       189        As     tau( 189) = (   0.7500000   0.4166670   0.7500000  )
       190        As     tau( 190) = (   0.7500000   0.5833330   0.9166670  )
       191        As     tau( 191) = (   0.9166670   0.4166670   0.9166670  )
       192        Sb     tau( 192) = (   0.9166670   0.5833330   0.7500000  )
       193        In     tau( 193) = (   0.6666670   0.6666670   0.0000000  )
       194        In     tau( 194) = (   0.6666670   0.8333330   0.1666670  )
       195        In     tau( 195) = (   0.8333330   0.6666670   0.1666670  )
       196        In     tau( 196) = (   0.8333330   0.8333330   0.0000000  )
       197        Sb     tau( 197) = (   0.7500000   0.7500000   0.0833330  )
       198        As     tau( 198) = (   0.7500000   0.9166670   0.2500000  )
       199        As     tau( 199) = (   0.9166670   0.7500000   0.2500000  )
       200        Sb     tau( 200) = (   0.9166670   0.9166670   0.0833330  )
       201        In     tau( 201) = (   0.6666670   0.6666670   0.3333330  )
       202        In     tau( 202) = (   0.6666670   0.8333330   0.5000000  )
       203        In     tau( 203) = (   0.8333330   0.6666670   0.5000000  )
       204        In     tau( 204) = (   0.8333330   0.8333330   0.3333330  )
       205        As     tau( 205) = (   0.7500000   0.7500000   0.4166670  )
       206        Sb     tau( 206) = (   0.7500000   0.9166670   0.5833330  )
       207        Sb     tau( 207) = (   0.9166670   0.7500000   0.5833330  )
       208        Sb     tau( 208) = (   0.9166670   0.9166670   0.4166670  )
       209        In     tau( 209) = (   0.6666670   0.6666670   0.6666670  )
       210        In     tau( 210) = (   0.6666670   0.8333330   0.8333330  )
       211        In     tau( 211) = (   0.8333330   0.6666670   0.8333330  )
       212        In     tau( 212) = (   0.8333330   0.8333330   0.6666670  )
       213        As     tau( 213) = (   0.7500000   0.7500000   0.7500000  )
       214        As     tau( 214) = (   0.7500000   0.9166670   0.9166670  )
       215        Sb     tau( 215) = (   0.9166670   0.7500000   0.9166670  )
       216        As     tau( 216) = (   0.9166670   0.9166670   0.7500000  )

     number of k points=     1
                       cart. coord. in units 2pi/alat
        k(    1) = (   0.0000000   0.0000000   0.0000000), wk =   2.0000000

     Dense  grid:  4088065 G-vectors     FFT dimensions: ( 250, 250, 250)

     Estimated max dynamical RAM per process >     252.39 MB

     Estimated total dynamical RAM >     126.19 GB

     Atomic positions and unit cell read from directory:
     ./tmp_In1.0Ga0.0As0.5Sb0.5_cube_3x3x3.4/In1.0Ga0.0As0.5Sb0.5_cube_3x3x3.4.save/
     Atomic positions from file used, from input discarded

     Cannot read rho : file not found

     Initial potential from superposition of free atoms

     starting charge    3023.5361, renormalised to    3024.0000

     STARTING HUBBARD OCCUPATIONS:

     =================== HUBBARD OCCUPATIONS ===================
     ------------------------ ATOM    1 ------------------------
     Tr[ns(  1)] =   1.00000
     eigenvalues:
       0.167  0.167  0.167
     eigenvectors (columns):
       1.000  0.000  0.000
       0.000  1.000  0.000
       0.000  0.000  1.000
     occupation matrix ns (before diag.):
       0.167  0.000  0.000
       0.000  0.167  0.000
       0.000  0.000  0.167
     ------------------------ ATOM    2 ------------------------
     Tr[ns(  2)] =   1.00000
     eigenvalues:
       0.167  0.167  0.167
     eigenvectors (columns):
       1.000  0.000  0.000
       0.000  1.000  0.000
       0.000  0.000  1.000
     occupation matrix ns (before diag.):
       0.167  0.000  0.000
       0.000  0.167  0.000
       0.000  0.000  0.167
     ------------------------ ATOM    3 ------------------------
     Tr[ns(  3)] =   1.00000
     eigenvalues:
       0.167  0.167  0.167
     eigenvectors (columns):
       1.000  0.000  0.000
       0.000  1.000  0.000
       0.000  0.000  1.000
     occupation matrix ns (before diag.):
       0.167  0.000  0.000
       0.000  0.167  0.000
       0.000  0.000  0.167
     ------------------------ ATOM    4 ------------------------
     Tr[ns(  4)] =   1.00000
     eigenvalues:
       0.167  0.167  0.167
     eigenvectors (columns):
       1.000  0.000  0.000
       0.000  1.000  0.000
       0.000  0.000  1.000
     occupation matrix ns (before diag.):
       0.167  0.000  0.000
       0.000  0.167  0.000
       0.000  0.000  0.167
     ------------------------ ATOM    5 ------------------------
     Tr[ns(  5)] =   3.00000
     eigenvalues:
       0.500  0.500  0.500
     eigenvectors (columns):
       1.000  0.000  0.000
       0.000  1.000  0.000
       0.000  0.000  1.000
     occupation matrix ns (before diag.):
       0.500  0.000  0.000
       0.000  0.500  0.000
       0.000  0.000  0.500
     ------------------------ ATOM    6 ------------------------
     Tr[ns(  6)] =   3.00000
     eigenvalues:
       0.500  0.500  0.500
     eigenvectors (columns):
       1.000  0.000  0.000
       0.000  1.000  0.000
       0.000  0.000  1.000
     occupation matrix ns (before diag.):
       0.500  0.000  0.000
       0.000  0.500  0.000
       0.000  0.000  0.500
     ------------------------ ATOM    7 ------------------------
     Tr[ns(  7)] =   3.00000
     eigenvalues:
       0.500  0.500  0.500
     eigenvectors (columns):
       1.000  0.000  0.000
       0.000  1.000  0.000
       0.000  0.000  1.000
     occupation matrix ns (before diag.):
       0.500  0.000  0.000
       0.000  0.500  0.000
       0.000  0.000  0.500
     ------------------------ ATOM    8 ------------------------
     Tr[ns(  8)] =   3.00000
     eigenvalues:
       0.500  0.500  0.500
     eigenvectors (columns):
       1.000  0.000  0.000
       0.000  1.000  0.000
       0.000  0.000  1.000
     occupation matrix ns (before diag.):
       0.500  0.000  0.000
       0.000  0.500  0.000
       0.000  0.000  0.500
     ------------------------ ATOM    9 ------------------------
     Tr[ns(  9)] =   1.00000
     eigenvalues:
       0.167  0.167  0.167
     eigenvectors (columns):
       1.000  0.000  0.000
       0.000  1.000  0.000
       0.000  0.000  1.000
     occupation matrix ns (before diag.):
       0.167  0.000  0.000
       0.000  0.167  0.000
       0.000  0.000  0.167
     ------------------------ ATOM   10 ------------------------
     Tr[ns( 10)] =   1.00000
     eigenvalues:
       0.167  0.167  0.167
     eigenvectors (columns):
       1.000  0.000  0.000
       0.000  1.000  0.000
       0.000  0.000  1.000
     occupation matrix ns (before diag.):
       0.167  0.000  0.000
       0.000  0.167  0.000
       0.000  0.000  0.167
     ------------------------ ATOM   11 ------------------------
     Tr[ns( 11)] =   1.00000
     eigenvalues:
       0.167  0.167  0.167
     eigenvectors (columns):
       1.000  0.000  0.000
       0.000  1.000  0.000
       0.000  0.000  1.000
     occupation matrix ns (before diag.):
       0.167  0.000  0.000
       0.000  0.167  0.000
       0.000  0.000  0.167
     ------------------------ ATOM   12 ------------------------
     Tr[ns( 12)] =   1.00000
     eigenvalues:
       0.167  0.167  0.167
     eigenvectors (columns):
       1.000  0.000  0.000
       0.000  1.000  0.000
       0.000  0.000  1.000
     occupation matrix ns (before diag.):
       0.167  0.000  0.000
       0.000  0.167  0.000
       0.000  0.000  0.167
     ------------------------ ATOM   13 ------------------------
     Tr[ns( 13)] =   3.00000
     eigenvalues:
       0.500  0.500  0.500
     eigenvectors (columns):
       1.000  0.000  0.000
       0.000  1.000  0.000
       0.000  0.000  1.000
     occupation matrix ns (before diag.):
       0.500  0.000  0.000
       0.000  0.500  0.000
       0.000  0.000  0.500
     ------------------------ ATOM   14 ------------------------
     Tr[ns( 14)] =   3.00000
     eigenvalues:
       0.500  0.500  0.500
     eigenvectors (columns):
       1.000  0.000  0.000
       0.000  1.000  0.000
       0.000  0.000  1.000
     occupation matrix ns (before diag.):
       0.500  0.000  0.000
       0.000  0.500  0.000
       0.000  0.000  0.500
     ------------------------ ATOM   15 ------------------------
     Tr[ns( 15)] =   3.00000
     eigenvalues:
       0.500  0.500  0.500
     eigenvectors (columns):
       1.000  0.000  0.000
       0.000  1.000  0.000
       0.000  0.000  1.000
     occupation matrix ns (before diag.):
       0.500  0.000  0.000
       0.000  0.500  0.000
       0.000  0.000  0.500
     ------------------------ ATOM   16 ------------------------
     Tr[ns( 16)] =   3.00000
     eigenvalues:
       0.500  0.500  0.500
     eigenvectors (columns):
       1.000  0.000  0.000
       0.000  1.000  0.000
       0.000  0.000  1.000
     occupation matrix ns (before diag.):
       0.500  0.000  0.000
       0.000  0.500  0.000
       0.000  0.000  0.500
     ------------------------ ATOM   17 ------------------------
     Tr[ns( 17)] =   1.00000
     eigenvalues:
       0.167  0.167  0.167
     eigenvectors (columns):
       1.000  0.000  0.000
       0.000  1.000  0.000
       0.000  0.000  1.000
     occupation matrix ns (before diag.):
       0.167  0.000  0.000
       0.000  0.167  0.000
       0.000  0.000  0.167
     ------------------------ ATOM   18 ------------------------
     Tr[ns( 18)] =   1.00000
     eigenvalues:
       0.167  0.167  0.167
     eigenvectors (columns):
       1.000  0.000  0.000
       0.000  1.000  0.000
       0.000  0.000  1.000
     occupation matrix ns (before diag.):
       0.167  0.000  0.000
       0.000  0.167  0.000
       0.000  0.000  0.167
     ------------------------ ATOM   19 ------------------------
     Tr[ns( 19)] =   1.00000
     eigenvalues:
       0.167  0.167  0.167
     eigenvectors (columns):
       1.000  0.000  0.000
       0.000  1.000  0.000
       0.000  0.000  1.000
     occupation matrix ns (before diag.):
       0.167  0.000  0.000
       0.000  0.167  0.000
       0.000  0.000  0.167
     ------------------------ ATOM   20 ------------------------
     Tr[ns( 20)] =   1.00000
     eigenvalues:
       0.167  0.167  0.167
     eigenvectors (columns):
       1.000  0.000  0.000
       0.000  1.000  0.000
       0.000  0.000  1.000
     occupation matrix ns (before diag.):
       0.167  0.000  0.000
       0.000  0.167  0.000
       0.000  0.000  0.167
     ------------------------ ATOM   21 ------------------------
     Tr[ns( 21)] =   3.00000
     eigenvalues:
       0.500  0.500  0.500
     eigenvectors (columns):
       1.000  0.000  0.000
       0.000  1.000  0.000
       0.000  0.000  1.000
     occupation matrix ns (before diag.):
       0.500  0.000  0.000
       0.000  0.500  0.000
       0.000  0.000  0.500
     ------------------------ ATOM   22 ------------------------
     Tr[ns( 22)] =   3.00000
     eigenvalues:
       0.500  0.500  0.500
     eigenvectors (columns):
       1.000  0.000  0.000
       0.000  1.000  0.000
       0.000  0.000  1.000
     occupation matrix ns (before diag.):
       0.500  0.000  0.000
       0.000  0.500  0.000
       0.000  0.000  0.500
     ------------------------ ATOM   23 ------------------------
     Tr[ns( 23)] =   3.00000
     eigenvalues:
       0.500  0.500  0.500
     eigenvectors (columns):
       1.000  0.000  0.000
       0.000  1.000  0.000
       0.000  0.000  1.000
     occupation matrix ns (before diag.):
       0.500  0.000  0.000
       0.000  0.500  0.000
       0.000  0.000  0.500
     ------------------------ ATOM   24 ------------------------
     Tr[ns( 24)] =   3.00000
     eigenvalues:
       0.500  0.500  0.500
     eigenvectors (columns):
       1.000  0.000  0.000
       0.000  1.000  0.000
       0.000  0.000  1.000
     occupation matrix ns (before diag.):
       0.500  0.000  0.000
       0.000  0.500  0.000
       0.000  0.000  0.500
     ------------------------ ATOM   25 ------------------------
     Tr[ns( 25)] =   1.00000
     eigenvalues:
       0.167  0.167  0.167
     eigenvectors (columns):
       1.000  0.000  0.000
       0.000  1.000  0.000
       0.000  0.000  1.000
     occupation matrix ns (before diag.):
       0.167  0.000  0.000
       0.000  0.167  0.000
       0.000  0.000  0.167
     ------------------------ ATOM   26 ------------------------
     Tr[ns( 26)] =   1.00000
     eigenvalues:
       0.167  0.167  0.167
     eigenvectors (columns):
       1.000  0.000  0.000
       0.000  1.000  0.000
       0.000  0.000  1.000
     occupation matrix ns (before diag.):
       0.167  0.000  0.000
       0.000  0.167  0.000
       0.000  0.000  0.167
     ------------------------ ATOM   27 ------------------------
     Tr[ns( 27)] =   1.00000
     eigenvalues:
       0.167  0.167  0.167
     eigenvectors (columns):
       1.000  0.000  0.000
       0.000  1.000  0.000
       0.000  0.000  1.000
     occupation matrix ns (before diag.):
       0.167  0.000  0.000
       0.000  0.167  0.000
       0.000  0.000  0.167
     ------------------------ ATOM   28 ------------------------
     Tr[ns( 28)] =   1.00000
     eigenvalues:
       0.167  0.167  0.167
     eigenvectors (columns):
       1.000  0.000  0.000
       0.000  1.000  0.000
       0.000  0.000  1.000
     occupation matrix ns (before diag.):
       0.167  0.000  0.000
       0.000  0.167  0.000
       0.000  0.000  0.167
     ------------------------ ATOM   29 ------------------------
     Tr[ns( 29)] =   3.00000
     eigenvalues:
       0.500  0.500  0.500
     eigenvectors (columns):
       1.000  0.000  0.000
       0.000  1.000  0.000
       0.000  0.000  1.000
     occupation matrix ns (before diag.):
       0.500  0.000  0.000
       0.000  0.500  0.000
       0.000  0.000  0.500
     ------------------------ ATOM   30 ------------------------
     Tr[ns( 30)] =   3.00000
     eigenvalues:
       0.500  0.500  0.500
     eigenvectors (columns):
       1.000  0.000  0.000
       0.000  1.000  0.000
       0.000  0.000  1.000
     occupation matrix ns (before diag.):
       0.500  0.000  0.000
       0.000  0.500  0.000
       0.000  0.000  0.500
     ------------------------ ATOM   31 ------------------------
     Tr[ns( 31)] =   3.00000
     eigenvalues:
       0.500  0.500  0.500
     eigenvectors (columns):
       1.000  0.000  0.000
       0.000  1.000  0.000
       0.000  0.000  1.000
     occupation matrix ns (before diag.):
       0.500  0.000  0.000
       0.000  0.500  0.000
       0.000  0.000  0.500
     ------------------------ ATOM   32 ------------------------
     Tr[ns( 32)] =   3.00000
     eigenvalues:
       0.500  0.500  0.500
     eigenvectors (columns):
       1.000  0.000  0.000
       0.000  1.000  0.000
       0.000  0.000  1.000
     occupation matrix ns (before diag.):
       0.500  0.000  0.000
       0.000  0.500  0.000
       0.000  0.000  0.500
     ------------------------ ATOM   33 ------------------------
     Tr[ns( 33)] =   1.00000
     eigenvalues:
       0.167  0.167  0.167
     eigenvectors (columns):
       1.000  0.000  0.000
       0.000  1.000  0.000
       0.000  0.000  1.000
     occupation matrix ns (before diag.):
       0.167  0.000  0.000
       0.000  0.167  0.000
       0.000  0.000  0.167
     ------------------------ ATOM   34 ------------------------
     Tr[ns( 34)] =   1.00000
     eigenvalues:
       0.167  0.167  0.167
     eigenvectors (columns):
       1.000  0.000  0.000
       0.000  1.000  0.000
       0.000  0.000  1.000
     occupation matrix ns (before diag.):
       0.167  0.000  0.000
       0.000  0.167  0.000
       0.000  0.000  0.167
     ------------------------ ATOM   35 ------------------------
     Tr[ns( 35)] =   1.00000
     eigenvalues:
       0.167  0.167  0.167
     eigenvectors (columns):
       1.000  0.000  0.000
       0.000  1.000  0.000
       0.000  0.000  1.000
     occupation matrix ns (before diag.):
       0.167  0.000  0.000
       0.000  0.167  0.000
       0.000  0.000  0.167
     ------------------------ ATOM   36 ------------------------
     Tr[ns( 36)] =   1.00000
     eigenvalues:
       0.167  0.167  0.167
     eigenvectors (columns):
       1.000  0.000  0.000
       0.000  1.000  0.000
       0.000  0.000  1.000
     occupation matrix ns (before diag.):
       0.167  0.000  0.000
       0.000  0.167  0.000
       0.000  0.000  0.167
     ------------------------ ATOM   37 ------------------------
     Tr[ns( 37)] =   3.00000
     eigenvalues:
       0.500  0.500  0.500
     eigenvectors (columns):
       1.000  0.000  0.000
       0.000  1.000  0.000
       0.000  0.000  1.000
     occupation matrix ns (before diag.):
       0.500  0.000  0.000
       0.000  0.500  0.000
       0.000  0.000  0.500
     ------------------------ ATOM   38 ------------------------
     Tr[ns( 38)] =   3.00000
     eigenvalues:
       0.500  0.500  0.500
     eigenvectors (columns):
       1.000  0.000  0.000
       0.000  1.000  0.000
       0.000  0.000  1.000
     occupation matrix ns (before diag.):
       0.500  0.000  0.000
       0.000  0.500  0.000
       0.000  0.000  0.500
     ------------------------ ATOM   39 ------------------------
     Tr[ns( 39)] =   3.00000
     eigenvalues:
       0.500  0.500  0.500
     eigenvectors (columns):
       1.000  0.000  0.000
       0.000  1.000  0.000
       0.000  0.000  1.000
     occupation matrix ns (before diag.):
       0.500  0.000  0.000
       0.000  0.500  0.000
       0.000  0.000  0.500
     ------------------------ ATOM   40 ------------------------
     Tr[ns( 40)] =   3.00000
     eigenvalues:
       0.500  0.500  0.500
     eigenvectors (columns):
       1.000  0.000  0.000
       0.000  1.000  0.000
       0.000  0.000  1.000
     occupation matrix ns (before diag.):
       0.500  0.000  0.000
       0.000  0.500  0.000
       0.000  0.000  0.500
     ------------------------ ATOM   41 ------------------------
     Tr[ns( 41)] =   1.00000
     eigenvalues:
       0.167  0.167  0.167
     eigenvectors (columns):
       1.000  0.000  0.000
       0.000  1.000  0.000
       0.000  0.000  1.000
     occupation matrix ns (before diag.):
       0.167  0.000  0.000
       0.000  0.167  0.000
       0.000  0.000  0.167
     ------------------------ ATOM   42 ------------------------
     Tr[ns( 42)] =   1.00000
     eigenvalues:
       0.167  0.167  0.167
     eigenvectors (columns):
       1.000  0.000  0.000
       0.000  1.000  0.000
       0.000  0.000  1.000
     occupation matrix ns (before diag.):
       0.167  0.000  0.000
       0.000  0.167  0.000
       0.000  0.000  0.167
     ------------------------ ATOM   43 ------------------------
     Tr[ns( 43)] =   1.00000
     eigenvalues:
       0.167  0.167  0.167
     eigenvectors (columns):
       1.000  0.000  0.000
       0.000  1.000  0.000
       0.000  0.000  1.000
     occupation matrix ns (before diag.):
       0.167  0.000  0.000
       0.000  0.167  0.000
       0.000  0.000  0.167
     ------------------------ ATOM   44 ------------------------
     Tr[ns( 44)] =   1.00000
     eigenvalues:
       0.167  0.167  0.167
     eigenvectors (columns):
       1.000  0.000  0.000
       0.000  1.000  0.000
       0.000  0.000  1.000
     occupation matrix ns (before diag.):
       0.167  0.000  0.000
       0.000  0.167  0.000
       0.000  0.000  0.167
     ------------------------ ATOM   45 ------------------------
     Tr[ns( 45)] =   3.00000
     eigenvalues:
       0.500  0.500  0.500
     eigenvectors (columns):
       1.000  0.000  0.000
       0.000  1.000  0.000
       0.000  0.000  1.000
     occupation matrix ns (before diag.):
       0.500  0.000  0.000
       0.000  0.500  0.000
       0.000  0.000  0.500
     ------------------------ ATOM   46 ------------------------
     Tr[ns( 46)] =   3.00000
     eigenvalues:
       0.500  0.500  0.500
     eigenvectors (columns):
       1.000  0.000  0.000
       0.000  1.000  0.000
       0.000  0.000  1.000
     occupation matrix ns (before diag.):
       0.500  0.000  0.000
       0.000  0.500  0.000
       0.000  0.000  0.500
     ------------------------ ATOM   47 ------------------------
     Tr[ns( 47)] =   3.00000
     eigenvalues:
       0.500  0.500  0.500
     eigenvectors (columns):
       1.000  0.000  0.000
       0.000  1.000  0.000
       0.000  0.000  1.000
     occupation matrix ns (before diag.):
       0.500  0.000  0.000
       0.000  0.500  0.000
       0.000  0.000  0.500
     ------------------------ ATOM   48 ------------------------
     Tr[ns( 48)] =   3.00000
     eigenvalues:
       0.500  0.500  0.500
     eigenvectors (columns):
       1.000  0.000  0.000
       0.000  1.000  0.000
       0.000  0.000  1.000
     occupation matrix ns (before diag.):
       0.500  0.000  0.000
       0.000  0.500  0.000
       0.000  0.000  0.500
     ------------------------ ATOM   49 ------------------------
     Tr[ns( 49)] =   1.00000
     eigenvalues:
       0.167  0.167  0.167
     eigenvectors (columns):
       1.000  0.000  0.000
       0.000  1.000  0.000
       0.000  0.000  1.000
     occupation matrix ns (before diag.):
       0.167  0.000  0.000
       0.000  0.167  0.000
       0.000  0.000  0.167
     ------------------------ ATOM   50 ------------------------
     Tr[ns( 50)] =   1.00000
     eigenvalues:
       0.167  0.167  0.167
     eigenvectors (columns):
       1.000  0.000  0.000
       0.000  1.000  0.000
       0.000  0.000  1.000
     occupation matrix ns (before diag.):
       0.167  0.000  0.000
       0.000  0.167  0.000
       0.000  0.000  0.167
     ------------------------ ATOM   51 ------------------------
     Tr[ns( 51)] =   1.00000
     eigenvalues:
       0.167  0.167  0.167
     eigenvectors (columns):
       1.000  0.000  0.000
       0.000  1.000  0.000
       0.000  0.000  1.000
     occupation matrix ns (before diag.):
       0.167  0.000  0.000
       0.000  0.167  0.000
       0.000  0.000  0.167
     ------------------------ ATOM   52 ------------------------
     Tr[ns( 52)] =   1.00000
     eigenvalues:
       0.167  0.167  0.167
     eigenvectors (columns):
       1.000  0.000  0.000
       0.000  1.000  0.000
       0.000  0.000  1.000
     occupation matrix ns (before diag.):
       0.167  0.000  0.000
       0.000  0.167  0.000
       0.000  0.000  0.167
     ------------------------ ATOM   53 ------------------------
     Tr[ns( 53)] =   3.00000
     eigenvalues:
       0.500  0.500  0.500
     eigenvectors (columns):
       1.000  0.000  0.000
       0.000  1.000  0.000
       0.000  0.000  1.000
     occupation matrix ns (before diag.):
       0.500  0.000  0.000
       0.000  0.500  0.000
       0.000  0.000  0.500
     ------------------------ ATOM   54 ------------------------
     Tr[ns( 54)] =   3.00000
     eigenvalues:
       0.500  0.500  0.500
     eigenvectors (columns):
       1.000  0.000  0.000
       0.000  1.000  0.000
       0.000  0.000  1.000
     occupation matrix ns (before diag.):
       0.500  0.000  0.000
       0.000  0.500  0.000
       0.000  0.000  0.500
     ------------------------ ATOM   55 ------------------------
     Tr[ns( 55)] =   3.00000
     eigenvalues:
       0.500  0.500  0.500
     eigenvectors (columns):
       1.000  0.000  0.000
       0.000  1.000  0.000
       0.000  0.000  1.000
     occupation matrix ns (before diag.):
       0.500  0.000  0.000
       0.000  0.500  0.000
       0.000  0.000  0.500
     ------------------------ ATOM   56 ------------------------
     Tr[ns( 56)] =   3.00000
     eigenvalues:
       0.500  0.500  0.500
     eigenvectors (columns):
       1.000  0.000  0.000
       0.000  1.000  0.000
       0.000  0.000  1.000
     occupation matrix ns (before diag.):
       0.500  0.000  0.000
       0.000  0.500  0.000
       0.000  0.000  0.500
     ------------------------ ATOM   57 ------------------------
     Tr[ns( 57)] =   1.00000
     eigenvalues:
       0.167  0.167  0.167
     eigenvectors (columns):
       1.000  0.000  0.000
       0.000  1.000  0.000
       0.000  0.000  1.000
     occupation matrix ns (before diag.):
       0.167  0.000  0.000
       0.000  0.167  0.000
       0.000  0.000  0.167
     ------------------------ ATOM   58 ------------------------
     Tr[ns( 58)] =   1.00000
     eigenvalues:
       0.167  0.167  0.167
     eigenvectors (columns):
       1.000  0.000  0.000
       0.000  1.000  0.000
       0.000  0.000  1.000
     occupation matrix ns (before diag.):
       0.167  0.000  0.000
       0.000  0.167  0.000
       0.000  0.000  0.167
     ------------------------ ATOM   59 ------------------------
     Tr[ns( 59)] =   1.00000
     eigenvalues:
       0.167  0.167  0.167
     eigenvectors (columns):
       1.000  0.000  0.000
       0.000  1.000  0.000
       0.000  0.000  1.000
     occupation matrix ns (before diag.):
       0.167  0.000  0.000
       0.000  0.167  0.000
       0.000  0.000  0.167
     ------------------------ ATOM   60 ------------------------
     Tr[ns( 60)] =   1.00000
     eigenvalues:
       0.167  0.167  0.167
     eigenvectors (columns):
       1.000  0.000  0.000
       0.000  1.000  0.000
       0.000  0.000  1.000
     occupation matrix ns (before diag.):
       0.167  0.000  0.000
       0.000  0.167  0.000
       0.000  0.000  0.167
     ------------------------ ATOM   61 ------------------------
     Tr[ns( 61)] =   3.00000
     eigenvalues:
       0.500  0.500  0.500
     eigenvectors (columns):
       1.000  0.000  0.000
       0.000  1.000  0.000
       0.000  0.000  1.000
     occupation matrix ns (before diag.):
       0.500  0.000  0.000
       0.000  0.500  0.000
       0.000  0.000  0.500
     ------------------------ ATOM   62 ------------------------
     Tr[ns( 62)] =   3.00000
     eigenvalues:
       0.500  0.500  0.500
     eigenvectors (columns):
       1.000  0.000  0.000
       0.000  1.000  0.000
       0.000  0.000  1.000
     occupation matrix ns (before diag.):
       0.500  0.000  0.000
       0.000  0.500  0.000
       0.000  0.000  0.500
     ------------------------ ATOM   63 ------------------------
     Tr[ns( 63)] =   3.00000
     eigenvalues:
       0.500  0.500  0.500
     eigenvectors (columns):
       1.000  0.000  0.000
       0.000  1.000  0.000
       0.000  0.000  1.000
     occupation matrix ns (before diag.):
       0.500  0.000  0.000
       0.000  0.500  0.000
       0.000  0.000  0.500
     ------------------------ ATOM   64 ------------------------
     Tr[ns( 64)] =   3.00000
     eigenvalues:
       0.500  0.500  0.500
     eigenvectors (columns):
       1.000  0.000  0.000
       0.000  1.000  0.000
       0.000  0.000  1.000
     occupation matrix ns (before diag.):
       0.500  0.000  0.000
       0.000  0.500  0.000
       0.000  0.000  0.500
     ------------------------ ATOM   65 ------------------------
     Tr[ns( 65)] =   1.00000
     eigenvalues:
       0.167  0.167  0.167
     eigenvectors (columns):
       1.000  0.000  0.000
       0.000  1.000  0.000
       0.000  0.000  1.000
     occupation matrix ns (before diag.):
       0.167  0.000  0.000
       0.000  0.167  0.000
       0.000  0.000  0.167
     ------------------------ ATOM   66 ------------------------
     Tr[ns( 66)] =   1.00000
     eigenvalues:
       0.167  0.167  0.167
     eigenvectors (columns):
       1.000  0.000  0.000
       0.000  1.000  0.000
       0.000  0.000  1.000
     occupation matrix ns (before diag.):
       0.167  0.000  0.000
       0.000  0.167  0.000
       0.000  0.000  0.167
     ------------------------ ATOM   67 ------------------------
     Tr[ns( 67)] =   1.00000
     eigenvalues:
       0.167  0.167  0.167
     eigenvectors (columns):
       1.000  0.000  0.000
       0.000  1.000  0.000
       0.000  0.000  1.000
     occupation matrix ns (before diag.):
       0.167  0.000  0.000
       0.000  0.167  0.000
       0.000  0.000  0.167
     ------------------------ ATOM   68 ------------------------
     Tr[ns( 68)] =   1.00000
     eigenvalues:
       0.167  0.167  0.167
     eigenvectors (columns):
       1.000  0.000  0.000
       0.000  1.000  0.000
       0.000  0.000  1.000
     occupation matrix ns (before diag.):
       0.167  0.000  0.000
       0.000  0.167  0.000
       0.000  0.000  0.167
     ------------------------ ATOM   69 ------------------------
     Tr[ns( 69)] =   3.00000
     eigenvalues:
       0.500  0.500  0.500
     eigenvectors (columns):
       1.000  0.000  0.000
       0.000  1.000  0.000
       0.000  0.000  1.000
     occupation matrix ns (before diag.):
       0.500  0.000  0.000
       0.000  0.500  0.000
       0.000  0.000  0.500
     ------------------------ ATOM   70 ------------------------
     Tr[ns( 70)] =   3.00000
     eigenvalues:
       0.500  0.500  0.500
     eigenvectors (columns):
       1.000  0.000  0.000
       0.000  1.000  0.000
       0.000  0.000  1.000
     occupation matrix ns (before diag.):
       0.500  0.000  0.000
       0.000  0.500  0.000
       0.000  0.000  0.500
     ------------------------ ATOM   71 ------------------------
     Tr[ns( 71)] =   3.00000
     eigenvalues:
       0.500  0.500  0.500
     eigenvectors (columns):
       1.000  0.000  0.000
       0.000  1.000  0.000
       0.000  0.000  1.000
     occupation matrix ns (before diag.):
       0.500  0.000  0.000
       0.000  0.500  0.000
       0.000  0.000  0.500
     ------------------------ ATOM   72 ------------------------
     Tr[ns( 72)] =   3.00000
     eigenvalues:
       0.500  0.500  0.500
     eigenvectors (columns):
       1.000  0.000  0.000
       0.000  1.000  0.000
       0.000  0.000  1.000
     occupation matrix ns (before diag.):
       0.500  0.000  0.000
       0.000  0.500  0.000
       0.000  0.000  0.500
     ------------------------ ATOM   73 ------------------------
     Tr[ns( 73)] =   1.00000
     eigenvalues:
       0.167  0.167  0.167
     eigenvectors (columns):
       1.000  0.000  0.000
       0.000  1.000  0.000
       0.000  0.000  1.000
     occupation matrix ns (before diag.):
       0.167  0.000  0.000
       0.000  0.167  0.000
       0.000  0.000  0.167
     ------------------------ ATOM   74 ------------------------
     Tr[ns( 74)] =   1.00000
     eigenvalues:
       0.167  0.167  0.167
     eigenvectors (columns):
       1.000  0.000  0.000
       0.000  1.000  0.000
       0.000  0.000  1.000
     occupation matrix ns (before diag.):
       0.167  0.000  0.000
       0.000  0.167  0.000
       0.000  0.000  0.167
     ------------------------ ATOM   75 ------------------------
     Tr[ns( 75)] =   1.00000
     eigenvalues:
       0.167  0.167  0.167
     eigenvectors (columns):
       1.000  0.000  0.000
       0.000  1.000  0.000
       0.000  0.000  1.000
     occupation matrix ns (before diag.):
       0.167  0.000  0.000
       0.000  0.167  0.000
       0.000  0.000  0.167
     ------------------------ ATOM   76 ------------------------
     Tr[ns( 76)] =   1.00000
     eigenvalues:
       0.167  0.167  0.167
     eigenvectors (columns):
       1.000  0.000  0.000
       0.000  1.000  0.000
       0.000  0.000  1.000
     occupation matrix ns (before diag.):
       0.167  0.000  0.000
       0.000  0.167  0.000
       0.000  0.000  0.167
     ------------------------ ATOM   77 ------------------------
     Tr[ns( 77)] =   3.00000
     eigenvalues:
       0.500  0.500  0.500
     eigenvectors (columns):
       1.000  0.000  0.000
       0.000  1.000  0.000
       0.000  0.000  1.000
     occupation matrix ns (before diag.):
       0.500  0.000  0.000
       0.000  0.500  0.000
       0.000  0.000  0.500
     ------------------------ ATOM   78 ------------------------
     Tr[ns( 78)] =   3.00000
     eigenvalues:
       0.500  0.500  0.500
     eigenvectors (columns):
       1.000  0.000  0.000
       0.000  1.000  0.000
       0.000  0.000  1.000
     occupation matrix ns (before diag.):
       0.500  0.000  0.000
       0.000  0.500  0.000
       0.000  0.000  0.500
     ------------------------ ATOM   79 ------------------------
     Tr[ns( 79)] =   3.00000
     eigenvalues:
       0.500  0.500  0.500
     eigenvectors (columns):
       1.000  0.000  0.000
       0.000  1.000  0.000
       0.000  0.000  1.000
     occupation matrix ns (before diag.):
       0.500  0.000  0.000
       0.000  0.500  0.000
       0.000  0.000  0.500
     ------------------------ ATOM   80 ------------------------
     Tr[ns( 80)] =   3.00000
     eigenvalues:
       0.500  0.500  0.500
     eigenvectors (columns):
       1.000  0.000  0.000
       0.000  1.000  0.000
       0.000  0.000  1.000
     occupation matrix ns (before diag.):
       0.500  0.000  0.000
       0.000  0.500  0.000
       0.000  0.000  0.500
     ------------------------ ATOM   81 ------------------------
     Tr[ns( 81)] =   1.00000
     eigenvalues:
       0.167  0.167  0.167
     eigenvectors (columns):
       1.000  0.000  0.000
       0.000  1.000  0.000
       0.000  0.000  1.000
     occupation matrix ns (before diag.):
       0.167  0.000  0.000
       0.000  0.167  0.000
       0.000  0.000  0.167
     ------------------------ ATOM   82 ------------------------
     Tr[ns( 82)] =   1.00000
     eigenvalues:
       0.167  0.167  0.167
     eigenvectors (columns):
       1.000  0.000  0.000
       0.000  1.000  0.000
       0.000  0.000  1.000
     occupation matrix ns (before diag.):
       0.167  0.000  0.000
       0.000  0.167  0.000
       0.000  0.000  0.167
     ------------------------ ATOM   83 ------------------------
     Tr[ns( 83)] =   1.00000
     eigenvalues:
       0.167  0.167  0.167
     eigenvectors (columns):
       1.000  0.000  0.000
       0.000  1.000  0.000
       0.000  0.000  1.000
     occupation matrix ns (before diag.):
       0.167  0.000  0.000
       0.000  0.167  0.000
       0.000  0.000  0.167
     ------------------------ ATOM   84 ------------------------
     Tr[ns( 84)] =   1.00000
     eigenvalues:
       0.167  0.167  0.167
     eigenvectors (columns):
       1.000  0.000  0.000
       0.000  1.000  0.000
       0.000  0.000  1.000
     occupation matrix ns (before diag.):
       0.167  0.000  0.000
       0.000  0.167  0.000
       0.000  0.000  0.167
     ------------------------ ATOM   85 ------------------------
     Tr[ns( 85)] =   3.00000
     eigenvalues:
       0.500  0.500  0.500
     eigenvectors (columns):
       1.000  0.000  0.000
       0.000  1.000  0.000
       0.000  0.000  1.000
     occupation matrix ns (before diag.):
       0.500  0.000  0.000
       0.000  0.500  0.000
       0.000  0.000  0.500
     ------------------------ ATOM   86 ------------------------
     Tr[ns( 86)] =   3.00000
     eigenvalues:
       0.500  0.500  0.500
     eigenvectors (columns):
       1.000  0.000  0.000
       0.000  1.000  0.000
       0.000  0.000  1.000
     occupation matrix ns (before diag.):
       0.500  0.000  0.000
       0.000  0.500  0.000
       0.000  0.000  0.500
     ------------------------ ATOM   87 ------------------------
     Tr[ns( 87)] =   3.00000
     eigenvalues:
       0.500  0.500  0.500
     eigenvectors (columns):
       1.000  0.000  0.000
       0.000  1.000  0.000
       0.000  0.000  1.000
     occupation matrix ns (before diag.):
       0.500  0.000  0.000
       0.000  0.500  0.000
       0.000  0.000  0.500
     ------------------------ ATOM   88 ------------------------
     Tr[ns( 88)] =   3.00000
     eigenvalues:
       0.500  0.500  0.500
     eigenvectors (columns):
       1.000  0.000  0.000
       0.000  1.000  0.000
       0.000  0.000  1.000
     occupation matrix ns (before diag.):
       0.500  0.000  0.000
       0.000  0.500  0.000
       0.000  0.000  0.500
     ------------------------ ATOM   89 ------------------------
     Tr[ns( 89)] =   1.00000
     eigenvalues:
       0.167  0.167  0.167
     eigenvectors (columns):
       1.000  0.000  0.000
       0.000  1.000  0.000
       0.000  0.000  1.000
     occupation matrix ns (before diag.):
       0.167  0.000  0.000
       0.000  0.167  0.000
       0.000  0.000  0.167
     ------------------------ ATOM   90 ------------------------
     Tr[ns( 90)] =   1.00000
     eigenvalues:
       0.167  0.167  0.167
     eigenvectors (columns):
       1.000  0.000  0.000
       0.000  1.000  0.000
       0.000  0.000  1.000
     occupation matrix ns (before diag.):
       0.167  0.000  0.000
       0.000  0.167  0.000
       0.000  0.000  0.167
     ------------------------ ATOM   91 ------------------------
     Tr[ns( 91)] =   1.00000
     eigenvalues:
       0.167  0.167  0.167
     eigenvectors (columns):
       1.000  0.000  0.000
       0.000  1.000  0.000
       0.000  0.000  1.000
     occupation matrix ns (before diag.):
       0.167  0.000  0.000
       0.000  0.167  0.000
       0.000  0.000  0.167
     ------------------------ ATOM   92 ------------------------
     Tr[ns( 92)] =   1.00000
     eigenvalues:
       0.167  0.167  0.167
     eigenvectors (columns):
       1.000  0.000  0.000
       0.000  1.000  0.000
       0.000  0.000  1.000
     occupation matrix ns (before diag.):
       0.167  0.000  0.000
       0.000  0.167  0.000
       0.000  0.000  0.167
     ------------------------ ATOM   93 ------------------------
     Tr[ns( 93)] =   3.00000
     eigenvalues:
       0.500  0.500  0.500
     eigenvectors (columns):
       1.000  0.000  0.000
       0.000  1.000  0.000
       0.000  0.000  1.000
     occupation matrix ns (before diag.):
       0.500  0.000  0.000
       0.000  0.500  0.000
       0.000  0.000  0.500
     ------------------------ ATOM   94 ------------------------
     Tr[ns( 94)] =   3.00000
     eigenvalues:
       0.500  0.500  0.500
     eigenvectors (columns):
       1.000  0.000  0.000
       0.000  1.000  0.000
       0.000  0.000  1.000
     occupation matrix ns (before diag.):
       0.500  0.000  0.000
       0.000  0.500  0.000
       0.000  0.000  0.500
     ------------------------ ATOM   95 ------------------------
     Tr[ns( 95)] =   3.00000
     eigenvalues:
       0.500  0.500  0.500
     eigenvectors (columns):
       1.000  0.000  0.000
       0.000  1.000  0.000
       0.000  0.000  1.000
     occupation matrix ns (before diag.):
       0.500  0.000  0.000
       0.000  0.500  0.000
       0.000  0.000  0.500
     ------------------------ ATOM   96 ------------------------
     Tr[ns( 96)] =   3.00000
     eigenvalues:
       0.500  0.500  0.500
     eigenvectors (columns):
       1.000  0.000  0.000
       0.000  1.000  0.000
       0.000  0.000  1.000
     occupation matrix ns (before diag.):
       0.500  0.000  0.000
       0.000  0.500  0.000
       0.000  0.000  0.500
     ------------------------ ATOM   97 ------------------------
     Tr[ns( 97)] =   1.00000
     eigenvalues:
       0.167  0.167  0.167
     eigenvectors (columns):
       1.000  0.000  0.000
       0.000  1.000  0.000
       0.000  0.000  1.000
     occupation matrix ns (before diag.):
       0.167  0.000  0.000
       0.000  0.167  0.000
       0.000  0.000  0.167
     ------------------------ ATOM   98 ------------------------
     Tr[ns( 98)] =   1.00000
     eigenvalues:
       0.167  0.167  0.167
     eigenvectors (columns):
       1.000  0.000  0.000
       0.000  1.000  0.000
       0.000  0.000  1.000
     occupation matrix ns (before diag.):
       0.167  0.000  0.000
       0.000  0.167  0.000
       0.000  0.000  0.167
     ------------------------ ATOM   99 ------------------------
     Tr[ns( 99)] =   1.00000
     eigenvalues:
       0.167  0.167  0.167
     eigenvectors (columns):
       1.000  0.000  0.000
       0.000  1.000  0.000
       0.000  0.000  1.000
     occupation matrix ns (before diag.):
       0.167  0.000  0.000
       0.000  0.167  0.000
       0.000  0.000  0.167
     ------------------------ ATOM  100 ------------------------
     Tr[ns(100)] =   1.00000
     eigenvalues:
       0.167  0.167  0.167
     eigenvectors (columns):
       1.000  0.000  0.000
       0.000  1.000  0.000
       0.000  0.000  1.000
     occupation matrix ns (before diag.):
       0.167  0.000  0.000
       0.000  0.167  0.000
       0.000  0.000  0.167
     ------------------------ ATOM  101 ------------------------
     Tr[ns(101)] =   3.00000
     eigenvalues:
       0.500  0.500  0.500
     eigenvectors (columns):
       1.000  0.000  0.000
       0.000  1.000  0.000
       0.000  0.000  1.000
     occupation matrix ns (before diag.):
       0.500  0.000  0.000
       0.000  0.500  0.000
       0.000  0.000  0.500
     ------------------------ ATOM  102 ------------------------
     Tr[ns(102)] =   3.00000
     eigenvalues:
       0.500  0.500  0.500
     eigenvectors (columns):
       1.000  0.000  0.000
       0.000  1.000  0.000
       0.000  0.000  1.000
     occupation matrix ns (before diag.):
       0.500  0.000  0.000
       0.000  0.500  0.000
       0.000  0.000  0.500
     ------------------------ ATOM  103 ------------------------
     Tr[ns(103)] =   3.00000
     eigenvalues:
       0.500  0.500  0.500
     eigenvectors (columns):
       1.000  0.000  0.000
       0.000  1.000  0.000
       0.000  0.000  1.000
     occupation matrix ns (before diag.):
       0.500  0.000  0.000
       0.000  0.500  0.000
       0.000  0.000  0.500
     ------------------------ ATOM  104 ------------------------
     Tr[ns(104)] =   3.00000
     eigenvalues:
       0.500  0.500  0.500
     eigenvectors (columns):
       1.000  0.000  0.000
       0.000  1.000  0.000
       0.000  0.000  1.000
     occupation matrix ns (before diag.):
       0.500  0.000  0.000
       0.000  0.500  0.000
       0.000  0.000  0.500
     ------------------------ ATOM  105 ------------------------
     Tr[ns(105)] =   1.00000
     eigenvalues:
       0.167  0.167  0.167
     eigenvectors (columns):
       1.000  0.000  0.000
       0.000  1.000  0.000
       0.000  0.000  1.000
     occupation matrix ns (before diag.):
       0.167  0.000  0.000
       0.000  0.167  0.000
       0.000  0.000  0.167
     ------------------------ ATOM  106 ------------------------
     Tr[ns(106)] =   1.00000
     eigenvalues:
       0.167  0.167  0.167
     eigenvectors (columns):
       1.000  0.000  0.000
       0.000  1.000  0.000
       0.000  0.000  1.000
     occupation matrix ns (before diag.):
       0.167  0.000  0.000
       0.000  0.167  0.000
       0.000  0.000  0.167
     ------------------------ ATOM  107 ------------------------
     Tr[ns(107)] =   1.00000
     eigenvalues:
       0.167  0.167  0.167
     eigenvectors (columns):
       1.000  0.000  0.000
       0.000  1.000  0.000
       0.000  0.000  1.000
     occupation matrix ns (before diag.):
       0.167  0.000  0.000
       0.000  0.167  0.000
       0.000  0.000  0.167
     ------------------------ ATOM  108 ------------------------
     Tr[ns(108)] =   1.00000
     eigenvalues:
       0.167  0.167  0.167
     eigenvectors (columns):
       1.000  0.000  0.000
       0.000  1.000  0.000
       0.000  0.000  1.000
     occupation matrix ns (before diag.):
       0.167  0.000  0.000
       0.000  0.167  0.000
       0.000  0.000  0.167
     ------------------------ ATOM  109 ------------------------
     Tr[ns(109)] =   3.00000
     eigenvalues:
       0.500  0.500  0.500
     eigenvectors (columns):
       1.000  0.000  0.000
       0.000  1.000  0.000
       0.000  0.000  1.000
     occupation matrix ns (before diag.):
       0.500  0.000  0.000
       0.000  0.500  0.000
       0.000  0.000  0.500
     ------------------------ ATOM  110 ------------------------
     Tr[ns(110)] =   3.00000
     eigenvalues:
       0.500  0.500  0.500
     eigenvectors (columns):
       1.000  0.000  0.000
       0.000  1.000  0.000
       0.000  0.000  1.000
     occupation matrix ns (before diag.):
       0.500  0.000  0.000
       0.000  0.500  0.000
       0.000  0.000  0.500
     ------------------------ ATOM  111 ------------------------
     Tr[ns(111)] =   3.00000
     eigenvalues:
       0.500  0.500  0.500
     eigenvectors (columns):
       1.000  0.000  0.000
       0.000  1.000  0.000
       0.000  0.000  1.000
     occupation matrix ns (before diag.):
       0.500  0.000  0.000
       0.000  0.500  0.000
       0.000  0.000  0.500
     ------------------------ ATOM  112 ------------------------
     Tr[ns(112)] =   3.00000
     eigenvalues:
       0.500  0.500  0.500
     eigenvectors (columns):
       1.000  0.000  0.000
       0.000  1.000  0.000
       0.000  0.000  1.000
     occupation matrix ns (before diag.):
       0.500  0.000  0.000
       0.000  0.500  0.000
       0.000  0.000  0.500
     ------------------------ ATOM  113 ------------------------
     Tr[ns(113)] =   1.00000
     eigenvalues:
       0.167  0.167  0.167
     eigenvectors (columns):
       1.000  0.000  0.000
       0.000  1.000  0.000
       0.000  0.000  1.000
     occupation matrix ns (before diag.):
       0.167  0.000  0.000
       0.000  0.167  0.000
       0.000  0.000  0.167
     ------------------------ ATOM  114 ------------------------
     Tr[ns(114)] =   1.00000
     eigenvalues:
       0.167  0.167  0.167
     eigenvectors (columns):
       1.000  0.000  0.000
       0.000  1.000  0.000
       0.000  0.000  1.000
     occupation matrix ns (before diag.):
       0.167  0.000  0.000
       0.000  0.167  0.000
       0.000  0.000  0.167
     ------------------------ ATOM  115 ------------------------
     Tr[ns(115)] =   1.00000
     eigenvalues:
       0.167  0.167  0.167
     eigenvectors (columns):
       1.000  0.000  0.000
       0.000  1.000  0.000
       0.000  0.000  1.000
     occupation matrix ns (before diag.):
       0.167  0.000  0.000
       0.000  0.167  0.000
       0.000  0.000  0.167
     ------------------------ ATOM  116 ------------------------
     Tr[ns(116)] =   1.00000
     eigenvalues:
       0.167  0.167  0.167
     eigenvectors (columns):
       1.000  0.000  0.000
       0.000  1.000  0.000
       0.000  0.000  1.000
     occupation matrix ns (before diag.):
       0.167  0.000  0.000
       0.000  0.167  0.000
       0.000  0.000  0.167
     ------------------------ ATOM  117 ------------------------
     Tr[ns(117)] =   3.00000
     eigenvalues:
       0.500  0.500  0.500
     eigenvectors (columns):
       1.000  0.000  0.000
       0.000  1.000  0.000
       0.000  0.000  1.000
     occupation matrix ns (before diag.):
       0.500  0.000  0.000
       0.000  0.500  0.000
       0.000  0.000  0.500
     ------------------------ ATOM  118 ------------------------
     Tr[ns(118)] =   3.00000
     eigenvalues:
       0.500  0.500  0.500
     eigenvectors (columns):
       1.000  0.000  0.000
       0.000  1.000  0.000
       0.000  0.000  1.000
     occupation matrix ns (before diag.):
       0.500  0.000  0.000
       0.000  0.500  0.000
       0.000  0.000  0.500
     ------------------------ ATOM  119 ------------------------
     Tr[ns(119)] =   3.00000
     eigenvalues:
       0.500  0.500  0.500
     eigenvectors (columns):
       1.000  0.000  0.000
       0.000  1.000  0.000
       0.000  0.000  1.000
     occupation matrix ns (before diag.):
       0.500  0.000  0.000
       0.000  0.500  0.000
       0.000  0.000  0.500
     ------------------------ ATOM  120 ------------------------
     Tr[ns(120)] =   3.00000
     eigenvalues:
       0.500  0.500  0.500
     eigenvectors (columns):
       1.000  0.000  0.000
       0.000  1.000  0.000
       0.000  0.000  1.000
     occupation matrix ns (before diag.):
       0.500  0.000  0.000
       0.000  0.500  0.000
       0.000  0.000  0.500
     ------------------------ ATOM  121 ------------------------
     Tr[ns(121)] =   1.00000
     eigenvalues:
       0.167  0.167  0.167
     eigenvectors (columns):
       1.000  0.000  0.000
       0.000  1.000  0.000
       0.000  0.000  1.000
     occupation matrix ns (before diag.):
       0.167  0.000  0.000
       0.000  0.167  0.000
       0.000  0.000  0.167
     ------------------------ ATOM  122 ------------------------
     Tr[ns(122)] =   1.00000
     eigenvalues:
       0.167  0.167  0.167
     eigenvectors (columns):
       1.000  0.000  0.000
       0.000  1.000  0.000
       0.000  0.000  1.000
     occupation matrix ns (before diag.):
       0.167  0.000  0.000
       0.000  0.167  0.000
       0.000  0.000  0.167
     ------------------------ ATOM  123 ------------------------
     Tr[ns(123)] =   1.00000
     eigenvalues:
       0.167  0.167  0.167
     eigenvectors (columns):
       1.000  0.000  0.000
       0.000  1.000  0.000
       0.000  0.000  1.000
     occupation matrix ns (before diag.):
       0.167  0.000  0.000
       0.000  0.167  0.000
       0.000  0.000  0.167
     ------------------------ ATOM  124 ------------------------
     Tr[ns(124)] =   1.00000
     eigenvalues:
       0.167  0.167  0.167
     eigenvectors (columns):
       1.000  0.000  0.000
       0.000  1.000  0.000
       0.000  0.000  1.000
     occupation matrix ns (before diag.):
       0.167  0.000  0.000
       0.000  0.167  0.000
       0.000  0.000  0.167
     ------------------------ ATOM  125 ------------------------
     Tr[ns(125)] =   3.00000
     eigenvalues:
       0.500  0.500  0.500
     eigenvectors (columns):
       1.000  0.000  0.000
       0.000  1.000  0.000
       0.000  0.000  1.000
     occupation matrix ns (before diag.):
       0.500  0.000  0.000
       0.000  0.500  0.000
       0.000  0.000  0.500
     ------------------------ ATOM  126 ------------------------
     Tr[ns(126)] =   3.00000
     eigenvalues:
       0.500  0.500  0.500
     eigenvectors (columns):
       1.000  0.000  0.000
       0.000  1.000  0.000
       0.000  0.000  1.000
     occupation matrix ns (before diag.):
       0.500  0.000  0.000
       0.000  0.500  0.000
       0.000  0.000  0.500
     ------------------------ ATOM  127 ------------------------
     Tr[ns(127)] =   3.00000
     eigenvalues:
       0.500  0.500  0.500
     eigenvectors (columns):
       1.000  0.000  0.000
       0.000  1.000  0.000
       0.000  0.000  1.000
     occupation matrix ns (before diag.):
       0.500  0.000  0.000
       0.000  0.500  0.000
       0.000  0.000  0.500
     ------------------------ ATOM  128 ------------------------
     Tr[ns(128)] =   3.00000
     eigenvalues:
       0.500  0.500  0.500
     eigenvectors (columns):
       1.000  0.000  0.000
       0.000  1.000  0.000
       0.000  0.000  1.000
     occupation matrix ns (before diag.):
       0.500  0.000  0.000
       0.000  0.500  0.000
       0.000  0.000  0.500
     ------------------------ ATOM  129 ------------------------
     Tr[ns(129)] =   1.00000
     eigenvalues:
       0.167  0.167  0.167
     eigenvectors (columns):
       1.000  0.000  0.000
       0.000  1.000  0.000
       0.000  0.000  1.000
     occupation matrix ns (before diag.):
       0.167  0.000  0.000
       0.000  0.167  0.000
       0.000  0.000  0.167
     ------------------------ ATOM  130 ------------------------
     Tr[ns(130)] =   1.00000
     eigenvalues:
       0.167  0.167  0.167
     eigenvectors (columns):
       1.000  0.000  0.000
       0.000  1.000  0.000
       0.000  0.000  1.000
     occupation matrix ns (before diag.):
       0.167  0.000  0.000
       0.000  0.167  0.000
       0.000  0.000  0.167
     ------------------------ ATOM  131 ------------------------
     Tr[ns(131)] =   1.00000
     eigenvalues:
       0.167  0.167  0.167
     eigenvectors (columns):
       1.000  0.000  0.000
       0.000  1.000  0.000
       0.000  0.000  1.000
     occupation matrix ns (before diag.):
       0.167  0.000  0.000
       0.000  0.167  0.000
       0.000  0.000  0.167
     ------------------------ ATOM  132 ------------------------
     Tr[ns(132)] =   1.00000
     eigenvalues:
       0.167  0.167  0.167
     eigenvectors (columns):
       1.000  0.000  0.000
       0.000  1.000  0.000
       0.000  0.000  1.000
     occupation matrix ns (before diag.):
       0.167  0.000  0.000
       0.000  0.167  0.000
       0.000  0.000  0.167
     ------------------------ ATOM  133 ------------------------
     Tr[ns(133)] =   3.00000
     eigenvalues:
       0.500  0.500  0.500
     eigenvectors (columns):
       1.000  0.000  0.000
       0.000  1.000  0.000
       0.000  0.000  1.000
     occupation matrix ns (before diag.):
       0.500  0.000  0.000
       0.000  0.500  0.000
       0.000  0.000  0.500
     ------------------------ ATOM  134 ------------------------
     Tr[ns(134)] =   3.00000
     eigenvalues:
       0.500  0.500  0.500
     eigenvectors (columns):
       1.000  0.000  0.000
       0.000  1.000  0.000
       0.000  0.000  1.000
     occupation matrix ns (before diag.):
       0.500  0.000  0.000
       0.000  0.500  0.000
       0.000  0.000  0.500
     ------------------------ ATOM  135 ------------------------
     Tr[ns(135)] =   3.00000
     eigenvalues:
       0.500  0.500  0.500
     eigenvectors (columns):
       1.000  0.000  0.000
       0.000  1.000  0.000
       0.000  0.000  1.000
     occupation matrix ns (before diag.):
       0.500  0.000  0.000
       0.000  0.500  0.000
       0.000  0.000  0.500
     ------------------------ ATOM  136 ------------------------
     Tr[ns(136)] =   3.00000
     eigenvalues:
       0.500  0.500  0.500
     eigenvectors (columns):
       1.000  0.000  0.000
       0.000  1.000  0.000
       0.000  0.000  1.000
     occupation matrix ns (before diag.):
       0.500  0.000  0.000
       0.000  0.500  0.000
       0.000  0.000  0.500
     ------------------------ ATOM  137 ------------------------
     Tr[ns(137)] =   1.00000
     eigenvalues:
       0.167  0.167  0.167
     eigenvectors (columns):
       1.000  0.000  0.000
       0.000  1.000  0.000
       0.000  0.000  1.000
     occupation matrix ns (before diag.):
       0.167  0.000  0.000
       0.000  0.167  0.000
       0.000  0.000  0.167
     ------------------------ ATOM  138 ------------------------
     Tr[ns(138)] =   1.00000
     eigenvalues:
       0.167  0.167  0.167
     eigenvectors (columns):
       1.000  0.000  0.000
       0.000  1.000  0.000
       0.000  0.000  1.000
     occupation matrix ns (before diag.):
       0.167  0.000  0.000
       0.000  0.167  0.000
       0.000  0.000  0.167
     ------------------------ ATOM  139 ------------------------
     Tr[ns(139)] =   1.00000
     eigenvalues:
       0.167  0.167  0.167
     eigenvectors (columns):
       1.000  0.000  0.000
       0.000  1.000  0.000
       0.000  0.000  1.000
     occupation matrix ns (before diag.):
       0.167  0.000  0.000
       0.000  0.167  0.000
       0.000  0.000  0.167
     ------------------------ ATOM  140 ------------------------
     Tr[ns(140)] =   1.00000
     eigenvalues:
       0.167  0.167  0.167
     eigenvectors (columns):
       1.000  0.000  0.000
       0.000  1.000  0.000
       0.000  0.000  1.000
     occupation matrix ns (before diag.):
       0.167  0.000  0.000
       0.000  0.167  0.000
       0.000  0.000  0.167
     ------------------------ ATOM  141 ------------------------
     Tr[ns(141)] =   3.00000
     eigenvalues:
       0.500  0.500  0.500
     eigenvectors (columns):
       1.000  0.000  0.000
       0.000  1.000  0.000
       0.000  0.000  1.000
     occupation matrix ns (before diag.):
       0.500  0.000  0.000
       0.000  0.500  0.000
       0.000  0.000  0.500
     ------------------------ ATOM  142 ------------------------
     Tr[ns(142)] =   3.00000
     eigenvalues:
       0.500  0.500  0.500
     eigenvectors (columns):
       1.000  0.000  0.000
       0.000  1.000  0.000
       0.000  0.000  1.000
     occupation matrix ns (before diag.):
       0.500  0.000  0.000
       0.000  0.500  0.000
       0.000  0.000  0.500
     ------------------------ ATOM  143 ------------------------
     Tr[ns(143)] =   3.00000
     eigenvalues:
       0.500  0.500  0.500
     eigenvectors (columns):
       1.000  0.000  0.000
       0.000  1.000  0.000
       0.000  0.000  1.000
     occupation matrix ns (before diag.):
       0.500  0.000  0.000
       0.000  0.500  0.000
       0.000  0.000  0.500
     ------------------------ ATOM  144 ------------------------
     Tr[ns(144)] =   3.00000
     eigenvalues:
       0.500  0.500  0.500
     eigenvectors (columns):
       1.000  0.000  0.000
       0.000  1.000  0.000
       0.000  0.000  1.000
     occupation matrix ns (before diag.):
       0.500  0.000  0.000
       0.000  0.500  0.000
       0.000  0.000  0.500
     ------------------------ ATOM  145 ------------------------
     Tr[ns(145)] =   1.00000
     eigenvalues:
       0.167  0.167  0.167
     eigenvectors (columns):
       1.000  0.000  0.000
       0.000  1.000  0.000
       0.000  0.000  1.000
     occupation matrix ns (before diag.):
       0.167  0.000  0.000
       0.000  0.167  0.000
       0.000  0.000  0.167
     ------------------------ ATOM  146 ------------------------
     Tr[ns(146)] =   1.00000
     eigenvalues:
       0.167  0.167  0.167
     eigenvectors (columns):
       1.000  0.000  0.000
       0.000  1.000  0.000
       0.000  0.000  1.000
     occupation matrix ns (before diag.):
       0.167  0.000  0.000
       0.000  0.167  0.000
       0.000  0.000  0.167
     ------------------------ ATOM  147 ------------------------
     Tr[ns(147)] =   1.00000
     eigenvalues:
       0.167  0.167  0.167
     eigenvectors (columns):
       1.000  0.000  0.000
       0.000  1.000  0.000
       0.000  0.000  1.000
     occupation matrix ns (before diag.):
       0.167  0.000  0.000
       0.000  0.167  0.000
       0.000  0.000  0.167
     ------------------------ ATOM  148 ------------------------
     Tr[ns(148)] =   1.00000
     eigenvalues:
       0.167  0.167  0.167
     eigenvectors (columns):
       1.000  0.000  0.000
       0.000  1.000  0.000
       0.000  0.000  1.000
     occupation matrix ns (before diag.):
       0.167  0.000  0.000
       0.000  0.167  0.000
       0.000  0.000  0.167
     ------------------------ ATOM  149 ------------------------
     Tr[ns(149)] =   3.00000
     eigenvalues:
       0.500  0.500  0.500
     eigenvectors (columns):
       1.000  0.000  0.000
       0.000  1.000  0.000
       0.000  0.000  1.000
     occupation matrix ns (before diag.):
       0.500  0.000  0.000
       0.000  0.500  0.000
       0.000  0.000  0.500
     ------------------------ ATOM  150 ------------------------
     Tr[ns(150)] =   3.00000
     eigenvalues:
       0.500  0.500  0.500
     eigenvectors (columns):
       1.000  0.000  0.000
       0.000  1.000  0.000
       0.000  0.000  1.000
     occupation matrix ns (before diag.):
       0.500  0.000  0.000
       0.000  0.500  0.000
       0.000  0.000  0.500
     ------------------------ ATOM  151 ------------------------
     Tr[ns(151)] =   3.00000
     eigenvalues:
       0.500  0.500  0.500
     eigenvectors (columns):
       1.000  0.000  0.000
       0.000  1.000  0.000
       0.000  0.000  1.000
     occupation matrix ns (before diag.):
       0.500  0.000  0.000
       0.000  0.500  0.000
       0.000  0.000  0.500
     ------------------------ ATOM  152 ------------------------
[...]
     atom    2 type  3   force =    -0.00000774    0.00008247    0.00003894
     atom    3 type  3   force =    -0.00004592    0.00006041   -0.00013277
     atom    4 type  3   force =    -0.00011689    0.00001900   -0.00004943
     atom    5 type  1   force =    -0.00007433   -0.00009164   -0.00012089
     atom    6 type  4   force =     0.00007700    0.00012148    0.00014518
     atom    7 type  4   force =     0.00012473    0.00001793   -0.00013320
     atom    8 type  4   force =     0.00003087    0.00013039   -0.00002489
     atom    9 type  3   force =     0.00011663   -0.00006362    0.00016346
     atom   10 type  3   force =     0.00001920   -0.00000859    0.00003450
     atom   11 type  3   force =     0.00004461   -0.00001196    0.00004389
     atom   12 type  3   force =     0.00009395   -0.00012301   -0.00007621
     atom   13 type  1   force =     0.00000462    0.00007892   -0.00010952
     atom   14 type  4   force =    -0.00010669   -0.00001150   -0.00004224
     atom   15 type  4   force =     0.00002921    0.00001899   -0.00023034
     atom   16 type  1   force =     0.00008628   -0.00022796   -0.00006008
     atom   17 type  3   force =     0.00014173   -0.00006356    0.00006894
     atom   18 type  3   force =    -0.00001600   -0.00011539    0.00009527
     atom   19 type  3   force =     0.00001009   -0.00000194   -0.00001501
     atom   20 type  3   force =     0.00010300   -0.00003767   -0.00005313
     atom   21 type  4   force =    -0.00011365    0.00021467    0.00003252
     atom   22 type  1   force =    -0.00034175    0.00027051   -0.00008473
     atom   23 type  4   force =    -0.00019604   -0.00010565    0.00018144
     atom   24 type  4   force =    -0.00020039    0.00014643   -0.00001380
     atom   25 type  3   force =     0.00007561    0.00003061   -0.00002712
     atom   26 type  3   force =     0.00008616   -0.00011877    0.00011922
     atom   27 type  3   force =     0.00007838   -0.00001708   -0.00010471
     atom   28 type  3   force =    -0.00002521    0.00006784   -0.00004757
     atom   29 type  4   force =     0.00002473   -0.00001498   -0.00000159
     atom   30 type  4   force =    -0.00003777   -0.00013093    0.00007248
     atom   31 type  1   force =     0.00010296    0.00000173   -0.00007811
     atom   32 type  1   force =     0.00004327    0.00008408   -0.00002158
     atom   33 type  3   force =    -0.00001016   -0.00000538    0.00009894
     atom   34 type  3   force =    -0.00001283    0.00004680   -0.00002681
     atom   35 type  3   force =     0.00006650   -0.00002988    0.00004242
     atom   36 type  3   force =     0.00004011    0.00011782    0.00010178
     atom   37 type  4   force =    -0.00009438   -0.00014782    0.00003191
     atom   38 type  4   force =    -0.00021795   -0.00024729    0.00009185
     atom   39 type  4   force =    -0.00000123   -0.00001506    0.00010449
     atom   40 type  4   force =     0.00021886   -0.00012644   -0.00012058
     atom   41 type  3   force =    -0.00013491   -0.00016830   -0.00003188
     atom   42 type  3   force =     0.00008443    0.00003101   -0.00009548
     atom   43 type  3   force =     0.00002523    0.00012575   -0.00007919
     atom   44 type  3   force =     0.00012931    0.00012223   -0.00001520
     atom   45 type  1   force =    -0.00022143   -0.00004241    0.00007746
     atom   46 type  1   force =     0.00021181   -0.00001445   -0.00004081
     atom   47 type  1   force =    -0.00007719    0.00015201    0.00002195
     atom   48 type  4   force =    -0.00012112   -0.00002341    0.00020248
     atom   49 type  3   force =     0.00017939    0.00006945    0.00004308
     atom   50 type  3   force =     0.00014884    0.00004749    0.00001212
     atom   51 type  3   force =     0.00012465   -0.00014932    0.00018496
     atom   52 type  3   force =    -0.00007911   -0.00010333   -0.00006559
     atom   53 type  1   force =     0.00024509    0.00000424    0.00009009
     atom   54 type  4   force =     0.00014878    0.00011194    0.00002530
     atom   55 type  4   force =     0.00008742    0.00002952    0.00004252
     atom   56 type  1   force =    -0.00001003    0.00010181   -0.00000577
     atom   57 type  3   force =     0.00000584   -0.00002302    0.00010557
     atom   58 type  3   force =    -0.00005038    0.00006290    0.00002774
     atom   59 type  3   force =     0.00001958    0.00001047    0.00003221
     atom   60 type  3   force =    -0.00009643   -0.00010872    0.00000602
     atom   61 type  4   force =    -0.00017171    0.00018271   -0.00007508
     atom   62 type  4   force =    -0.00014265    0.00004241   -0.00010492
     atom   63 type  4   force =     0.00008095    0.00015845    0.00009664
     atom   64 type  1   force =     0.00010997    0.00019760   -0.00026639
     atom   65 type  3   force =    -0.00007388    0.00020833    0.00003269
     atom   66 type  3   force =     0.00003193   -0.00008614    0.00007146
     atom   67 type  3   force =     0.00017244    0.00014899   -0.00014152
     atom   68 type  3   force =    -0.00012270   -0.00000119   -0.00000460
     atom   69 type  4   force =    -0.00000028    0.00007239    0.00031901
     atom   70 type  1   force =    -0.00010718   -0.00008615    0.00016414
     atom   71 type  4   force =    -0.00003469   -0.00002723   -0.00002203
     atom   72 type  4   force =    -0.00004311   -0.00007397    0.00005685
     atom   73 type  3   force =    -0.00002654    0.00005650   -0.00004401
     atom   74 type  3   force =     0.00000351    0.00001594   -0.00006610
     atom   75 type  3   force =    -0.00001420    0.00000342   -0.00000725
     atom   76 type  3   force =    -0.00002232   -0.00008036    0.00006789
     atom   77 type  1   force =     0.00008501   -0.00019908    0.00026452
     atom   78 type  1   force =     0.00011826   -0.00020592   -0.00008025
     atom   79 type  1   force =    -0.00021036   -0.00009034   -0.00004155
     atom   80 type  1   force =     0.00000990   -0.00010538    0.00012858
     atom   81 type  3   force =    -0.00018316    0.00018143    0.00002368
     atom   82 type  3   force =    -0.00004880   -0.00011815    0.00003270
     atom   83 type  3   force =    -0.00024044    0.00007003    0.00001481
     atom   84 type  3   force =    -0.00004139   -0.00011416   -0.00008719
     atom   85 type  1   force =    -0.00004721   -0.00001964   -0.00024809
     atom   86 type  4   force =     0.00005118    0.00007508   -0.00027854
     atom   87 type  1   force =    -0.00003211   -0.00015969   -0.00021923
     atom   88 type  4   force =    -0.00018432    0.00016598    0.00003402
     atom   89 type  3   force =    -0.00000002   -0.00005853   -0.00010588
     atom   90 type  3   force =    -0.00005313   -0.00003063   -0.00002707
     atom   91 type  3   force =     0.00000820   -0.00008387   -0.00007707
     atom   92 type  3   force =    -0.00010216    0.00008255   -0.00004867
     atom   93 type  4   force =     0.00011349   -0.00012306   -0.00001522
     atom   94 type  4   force =    -0.00003377    0.00018023    0.00006025
     atom   95 type  1   force =     0.00009709   -0.00012048    0.00012545
     atom   96 type  4   force =     0.00012551    0.00005775    0.00001203
     atom   97 type  3   force =    -0.00006218   -0.00003482   -0.00005513
     atom   98 type  3   force =     0.00003962    0.00003487   -0.00002818
     atom   99 type  3   force =    -0.00004805   -0.00005288   -0.00010744
     atom  100 type  3   force =    -0.00010712   -0.00015376   -0.00011873
     atom  101 type  4   force =    -0.00004099    0.00005110   -0.00005639
     atom  102 type  1   force =     0.00017848    0.00001656   -0.00008760
     atom  103 type  1   force =    -0.00004939    0.00007398    0.00004121
     atom  104 type  1   force =    -0.00004399   -0.00007374   -0.00003945
     atom  105 type  3   force =     0.00006968    0.00009973    0.00007956
     atom  106 type  3   force =    -0.00005033   -0.00009562    0.00007484
     atom  107 type  3   force =    -0.00008777   -0.00002381    0.00002220
     atom  108 type  3   force =    -0.00009287    0.00007038    0.00013005
     atom  109 type  4   force =     0.00008555    0.00008717    0.00009817
     atom  110 type  4   force =     0.00002430   -0.00007128    0.00006159
     atom  111 type  1   force =     0.00012145   -0.00005514   -0.00005448
     atom  112 type  1   force =     0.00013560    0.00008296   -0.00022103
     atom  113 type  3   force =    -0.00000464   -0.00002179   -0.00004971
     atom  114 type  3   force =    -0.00016567    0.00005829   -0.00020300
     atom  115 type  3   force =    -0.00003391   -0.00018911   -0.00011073
     atom  116 type  3   force =    -0.00013349    0.00000654   -0.00001057
     atom  117 type  1   force =    -0.00003799    0.00010185    0.00009287
     atom  118 type  4   force =    -0.00000553    0.00000849    0.00006916
     atom  119 type  4   force =    -0.00001460   -0.00002381   -0.00011199
     atom  120 type  4   force =     0.00019206    0.00003265   -0.00001881
     atom  121 type  3   force =    -0.00017823    0.00000005   -0.00006441
     atom  122 type  3   force =    -0.00012198   -0.00005064   -0.00001104
     atom  123 type  3   force =    -0.00002058   -0.00000652   -0.00005781
     atom  124 type  3   force =     0.00006032    0.00009946   -0.00003166
     atom  125 type  1   force =     0.00009540    0.00008107   -0.00008333
     atom  126 type  1   force =     0.00011481    0.00013005    0.00004285
     atom  127 type  1   force =     0.00002660    0.00013315   -0.00001377
     atom  128 type  1   force =    -0.00009181   -0.00015156    0.00008415
     atom  129 type  3   force =    -0.00000856   -0.00001853    0.00012828
     atom  130 type  3   force =    -0.00008075   -0.00004289    0.00007778
     atom  131 type  3   force =    -0.00002492    0.00005709    0.00010307
     atom  132 type  3   force =    -0.00000793   -0.00007624   -0.00003605
     atom  133 type  4   force =     0.00013304    0.00005371   -0.00017234
     atom  134 type  4   force =     0.00004285   -0.00005730   -0.00018006
     atom  135 type  4   force =     0.00005077    0.00000294    0.00013507
     atom  136 type  1   force =    -0.00007562   -0.00002352   -0.00015623
     atom  137 type  3   force =    -0.00011035   -0.00002799   -0.00002437
     atom  138 type  3   force =    -0.00005712   -0.00000419   -0.00009582
     atom  139 type  3   force =    -0.00003204   -0.00001722   -0.00016280
     atom  140 type  3   force =    -0.00000496    0.00004999    0.00000926
     atom  141 type  1   force =     0.00010971   -0.00004301    0.00009131
     atom  142 type  4   force =     0.00017158   -0.00011015    0.00014269
     atom  143 type  1   force =    -0.00012785    0.00006326    0.00001020
     atom  144 type  4   force =    -0.00002530   -0.00003372    0.00004730
     atom  145 type  3   force =    -0.00014894   -0.00001440    0.00012925
     atom  146 type  3   force =    -0.00002374   -0.00014211   -0.00011940
     atom  147 type  3   force =     0.00022240    0.00005350    0.00001548
     atom  148 type  3   force =     0.00000881    0.00003875   -0.00004034
     atom  149 type  4   force =    -0.00007910    0.00007981    0.00002289
     atom  150 type  4   force =    -0.00008428   -0.00007732    0.00016763
     atom  151 type  1   force =     0.00023298   -0.00000562    0.00024899
     atom  152 type  1   force =    -0.00003067    0.00014483   -0.00034612
     atom  153 type  3   force =    -0.00005606   -0.00010825    0.00005661
     atom  154 type  3   force =    -0.00009379   -0.00007988   -0.00002340
     atom  155 type  3   force =     0.00008112   -0.00004146    0.00003201
     atom  156 type  3   force =     0.00015885   -0.00001813    0.00015670
     atom  157 type  4   force =     0.00021631   -0.00006531    0.00019464
     atom  158 type  1   force =     0.00023959    0.00023648   -0.00010118
     atom  159 type  1   force =     0.00003617    0.00012251    0.00001760
     atom  160 type  1   force =    -0.00000056    0.00007543    0.00022886
     atom  161 type  3   force =    -0.00001956   -0.00006361    0.00003091
     atom  162 type  3   force =    -0.00006623   -0.00001038   -0.00004892
     atom  163 type  3   force =    -0.00008564   -0.00003478   -0.00008353
     atom  164 type  3   force =    -0.00005689   -0.00004517   -0.00012997
     atom  165 type  4   force =    -0.00010032   -0.00001304   -0.00000840
     atom  166 type  1   force =     0.00010822    0.00001520   -0.00006133
     atom  167 type  4   force =     0.00000095    0.00007070   -0.00007021
     atom  168 type  1   force =     0.00002190    0.00016880    0.00003382
     atom  169 type  3   force =     0.00005424   -0.00011559   -0.00012112
     atom  170 type  3   force =    -0.00006947    0.00005650    0.00003545
     atom  171 type  3   force =    -0.00006248   -0.00017681    0.00014510
     atom  172 type  3   force =    -0.00005058   -0.00013925   -0.00003614
     atom  173 type  1   force =    -0.00011172   -0.00012484   -0.00004326
     atom  174 type  4   force =    -0.00003985    0.00009546    0.00003516
     atom  175 type  1   force =    -0.00010696   -0.00002422    0.00019547
     atom  176 type  4   force =     0.00002629   -0.00007269    0.00005349
     atom  177 type  3   force =     0.00000416    0.00007929    0.00002348
     atom  178 type  3   force =     0.00016177    0.00002676    0.00011679
     atom  179 type  3   force =     0.00010660    0.00012926    0.00014625
     atom  180 type  3   force =     0.00000447    0.00020883    0.00003538
     atom  181 type  1   force =     0.00011316    0.00004791   -0.00004851
     atom  182 type  4   force =     0.00005523    0.00003077    0.00007667
     atom  183 type  1   force =    -0.00011489   -0.00010173    0.00009066
     atom  184 type  1   force =    -0.00028681   -0.00010736   -0.00002495
     atom  185 type  3   force =    -0.00004485    0.00000877    0.00001108
     atom  186 type  3   force =    -0.00002118   -0.00001669   -0.00013453
     atom  187 type  3   force =     0.00007204    0.00012458   -0.00006444
     atom  188 type  3   force =    -0.00010392    0.00003913   -0.00001216
     atom  189 type  1   force =     0.00018207   -0.00006651   -0.00004619
     atom  190 type  1   force =    -0.00004097   -0.00018673   -0.00019828
     atom  191 type  1   force =     0.00011609   -0.00015975   -0.00010642
     atom  192 type  4   force =    -0.00011523   -0.00017572    0.00010787
     atom  193 type  3   force =    -0.00003686    0.00005607   -0.00013932
     atom  194 type  3   force =    -0.00002595   -0.00011657   -0.00007036
     atom  195 type  3   force =    -0.00002768   -0.00009502    0.00006695
     atom  196 type  3   force =     0.00005779   -0.00005402   -0.00004346
     atom  197 type  4   force =     0.00007210    0.00003271    0.00006572
     atom  198 type  1   force =    -0.00011994   -0.00010295    0.00002695
     atom  199 type  1   force =     0.00012518   -0.00007008    0.00002407
     atom  200 type  4   force =     0.00019631   -0.00013822   -0.00013753
     atom  201 type  3   force =     0.00010251    0.00002262   -0.00009675
     atom  202 type  3   force =     0.00004500   -0.00006692    0.00004397
     atom  203 type  3   force =     0.00003039   -0.00000997    0.00000331
     atom  204 type  3   force =     0.00023516   -0.00009373    0.00012384
     atom  205 type  1   force =    -0.00009551   -0.00005868   -0.00019697
     atom  206 type  4   force =    -0.00001127    0.00015305   -0.00005496
     atom  207 type  4   force =    -0.00013523    0.00019111   -0.00009143
     atom  208 type  4   force =     0.00015713    0.00015684    0.00011021
     atom  209 type  3   force =    -0.00001305    0.00005623    0.00006854
     atom  210 type  3   force =     0.00001211   -0.00001404   -0.00002656
     atom  211 type  3   force =    -0.00001944    0.00012680    0.00002469
     atom  212 type  3   force =     0.00001321    0.00006900    0.00012975
     atom  213 type  1   force =    -0.00011997    0.00006985    0.00021374
     atom  214 type  1   force =    -0.00016047   -0.00014112   -0.00001796
     atom  215 type  4   force =     0.00005203    0.00017844    0.00014706
     atom  216 type  1   force =     0.00000072    0.00005314    0.00028445

     Total force =     0.002662     Total SCF correction =     0.001648
     SCF correction compared to forces is large: reduce conv_thr to get better values


     Computing stress (Cartesian axis) and pressure

          total   stress  (Ry/bohr**3)                   (kbar)     P=       -0.03
  -0.00000021   0.00000003   0.00000006           -0.03        0.00        0.01
   0.00000003  -0.00000018   0.00000009            0.00       -0.03        0.01
   0.00000006   0.00000009  -0.00000022            0.01        0.01       -0.03


     Writing all to output data dir ./tmp_In1.0Ga0.0As0.5Sb0.5_cube_3x3x3.4/In1.0Ga0.0As0.5Sb0.5_cube_3x3x3.4.save/ :
     XML data file, charge density, pseudopotentials, collected wavefunctions

     init_run     :     90.56s CPU    100.29s WALL (       2 calls)
     electrons    :   6193.18s CPU   6231.60s WALL (      11 calls)
     update_pot   :      2.04s CPU      2.08s WALL (       9 calls)
     forces       :    554.16s CPU    559.16s WALL (      11 calls)
     stress       :   1837.78s CPU   1841.51s WALL (      11 calls)

     Called by init_run:
     wfcinit      :     53.84s CPU     54.49s WALL (       2 calls)
     potinit      :      0.22s CPU      0.33s WALL (       2 calls)
     hinit0       :     30.18s CPU     39.05s WALL (       2 calls)

     Called by electrons:
     c_bands      :   5836.65s CPU   5870.01s WALL (      96 calls)
     sum_band     :    345.33s CPU    346.59s WALL (      96 calls)
     v_of_rho     :      8.92s CPU      9.00s WALL (      98 calls)
     mix_rho      :      1.00s CPU      1.01s WALL (      96 calls)

     Called by c_bands:
     init_us_2    :     19.04s CPU     19.20s WALL (     227 calls)
     regterg      :   5813.24s CPU   5839.18s WALL (      96 calls)

     Called by *egterg:
     rdiaghg      :   1016.22s CPU   1016.61s WALL (     651 calls)
     h_psi        :   3691.49s CPU   3707.84s WALL (     671 calls)
     g_psi        :      3.50s CPU      3.51s WALL (     573 calls)

     Called by h_psi:
     h_psi:calbec :    355.38s CPU    355.42s WALL (     671 calls)
     vloc_psi     :   1779.11s CPU   1786.11s WALL (     671 calls)
     vloc_psi:tg_ :      0.42s CPU      0.43s WALL (     671 calls)
     add_vuspsi   :    291.62s CPU    300.80s WALL (     671 calls)
     vhpsi        :   1256.95s CPU   1257.08s WALL (     671 calls)

     General routines
     calbec       :    916.80s CPU    917.47s WALL (   30159 calls)
     fft          :     38.25s CPU     47.08s WALL (    1011 calls)
     ffts         :      0.94s CPU      0.94s WALL (      96 calls)
     fftw         :   2046.80s CPU   2054.60s WALL (  498770 calls)

     Parallel routines
     fft_scatt_xy :     64.12s CPU     64.37s WALL (  499877 calls)
     fft_scatt_yz :   1747.94s CPU   1763.56s WALL (  499877 calls)
     fft_scatt_tg :      9.97s CPU     10.15s WALL (  498770 calls)

     Hubbard U routines
     new_ns       :     19.16s CPU     19.29s WALL (      96 calls)
     vhpsi        :   1256.95s CPU   1257.08s WALL (     671 calls)
     force_hub    :    493.00s CPU    494.37s WALL (      11 calls)
                                        0.00s GPU  (      11 calls)
     stres_hub    :     39.98s CPU     41.22s WALL (      11 calls)
                                        0.00s GPU  (      11 calls)

     PWSCF        :      2h25m CPU      2h27m WALL


   This run was terminated on:  16: 7:26  28Jan2026            

=------------------------------------------------------------------------------=
   JOB DONE.
=------------------------------------------------------------------------------=
