
     Program PWSCF v.7.3.1 starts on 30Jan2026 at  9:34:30 

     This program is part of the open-source Quantum ESPRESSO suite
     for quantum simulation of materials; please cite
         "P. Giannozzi et al., J. Phys.:Condens. Matter 21 395502 (2009);
         "P. Giannozzi et al., J. Phys.:Condens. Matter 29 465901 (2017);
         "P. Giannozzi et al., J. Chem. Phys. 152 154105 (2020);
          URL http://www.quantum-espresso.org", 
     in publications or presentations arising from this work. More details at
     http://www.quantum-espresso.org/quote

     Parallel version (MPI), running on   640 processors

     MPI processes distributed on     5 nodes
     493715 MiB available memory on the printing compute node when the environment starts

     Reading input from In1.0Ga0.0As0.5Sb0.5_cube_3x3x3.4.scf.in
Warning: card &CELL ignored
Warning: card   CELL_DOFREE = 'ALL', ignored
Warning: card / ignored

     Current dimensions of program PWSCF are:
     Max number of different atomic species (ntypx) = 10
     Max number of k-points (npk) =  40000
     Max angular momentum in pseudopotentials (lmaxx) =  4

     K-points division:     npool     =       8
     R & G space division:  proc/nbgrp/npool/nimage =      80
     Subspace diagonalization in iterative solution of the eigenvalue problem:
     one sub-group per band group will be used
     custom distributed-memory algorithm (size of sub-group:  8*  8 procs)


     Parallelization info
     --------------------
     sticks:   dense  smooth     PW     G-vecs:    dense   smooth      PW
     Min         610     610    157               101516   101516   13231
     Max         611     611    158               101521   101521   13235
     Sum       48857   48857  12565              8121473  8121473 1058635

     Using Slab Decomposition



     bravais-lattice index     =            1
     lattice parameter (alat)  =      35.7591  a.u.
     unit-cell volume          =   45725.5089 (a.u.)^3
     number of atoms/cell      =          216
     number of atomic types    =            4
     number of electrons       =      3024.00
     number of Kohn-Sham states=         2160
     kinetic-energy cutoff     =     120.0000  Ry
     charge density cutoff     =     480.0000  Ry
     scf convergence threshold =      1.0E-05
     mixing beta               =       0.6500
     number of iterations used =            8  plain     mixing
     Exchange-correlation= PBE
                           (   1   4   3   4   0   0   0)
     Hubbard projectors: atomic
     Hubbard parameters of DFT+U (Dudarev formulation) in eV:
     U(As-4p) =  3.2600
     U(Ga-4p) = -2.8000
     U(In-5p) = -1.0150
     U(Sb-5p) =  3.1600

     Internal variables: lda_plus_u =T, lda_plus_u_kind = 0

     celldm(1)=  35.759067  celldm(2)=   0.000000  celldm(3)=   0.000000
     celldm(4)=   0.000000  celldm(5)=   0.000000  celldm(6)=   0.000000

     crystal axes: (cart. coord. in units of alat)
               a(1) = (   1.000000   0.000000   0.000000 )  
               a(2) = (   0.000000   1.000000   0.000000 )  
               a(3) = (   0.000000   0.000000   1.000000 )  

     reciprocal axes: (cart. coord. in units 2 pi/alat)
               b(1) = (  1.000000  0.000000  0.000000 )  
               b(2) = (  0.000000  1.000000  0.000000 )  
               b(3) = (  0.000000  0.000000  1.000000 )  


     PseudoPot. # 1 for As read from file:
     /work/i254/i254/gentles/data/pseudos/As.pbe.NC-SR.standard.v0.5.UPF
     MD5 check sum: bfe1a874457ce592347346129958e7cf
     Pseudo is Norm-conserving + core correction, Zval = 15.0
     Generated using ONCVPSP code by D. R. Hamann
     Using radial grid of 1358 points,  6 beta functions with: 
                l(1) =   0
                l(2) =   0
                l(3) =   1
                l(4) =   1
                l(5) =   2
                l(6) =   2

     PseudoPot. # 2 for Ga read from file:
     /work/i254/i254/gentles/data/pseudos/Ga.pbe.NC-SR.standard.v0.5.UPF
     MD5 check sum: 2bb81bf6f0a8d9832cf3329850435ecf
     Pseudo is Norm-conserving + core correction, Zval = 13.0
     Generated using ONCVPSP code by D. R. Hamann
     Using radial grid of 1902 points,  6 beta functions with: 
                l(1) =   0
                l(2) =   0
                l(3) =   1
                l(4) =   1
                l(5) =   2
                l(6) =   2

     PseudoPot. # 3 for In read from file:
     /work/i254/i254/gentles/data/pseudos/In.pbe.NC-SR.standard.v0.5.UPF
     MD5 check sum: 835f4bf908c982ff75c88e16816a8d7f
     Pseudo is Norm-conserving + core correction, Zval = 13.0
     Generated using ONCVPSP code by D. R. Hamann
     Using radial grid of 1964 points,  6 beta functions with: 
                l(1) =   0
                l(2) =   0
                l(3) =   1
                l(4) =   1
                l(5) =   2
                l(6) =   2

     PseudoPot. # 4 for Sb read from file:
     /work/i254/i254/gentles/data/pseudos/Sb.pbe.NC-SR.standard.v0.5.UPF
     MD5 check sum: 127f69b6101c45666faeae1b5d611565
     Pseudo is Norm-conserving + core correction, Zval = 15.0
     Generated using ONCVPSP code by D. R. Hamann
     Using radial grid of 1434 points,  6 beta functions with: 
                l(1) =   0
                l(2) =   0
                l(3) =   1
                l(4) =   1
                l(5) =   2
                l(6) =   2

     atomic species   valence    mass     pseudopotential
     As               15.00    74.92160     As( 1.00)
     Ga               13.00    69.72300     Ga( 1.00)
     In               13.00   114.81800     In( 1.00)
     Sb               15.00   121.76000     Sb( 1.00)

     No symmetry found



   Cartesian axes

     site n.     atom                  positions (alat units)
         1        In     tau(   1) = (   0.0045520   0.0018800   0.0019240  )
         2        In     tau(   2) = (  -0.0052540   0.1635470   0.1610290  )
         3        In     tau(   3) = (   0.1681560   0.0025060   0.1592010  )
         4        In     tau(   4) = (   0.1557630   0.1701750   0.0008180  )
         5        As     tau(   5) = (   0.0816000   0.0847540   0.0828190  )
         6        Sb     tau(   6) = (   0.0795630   0.2483650   0.2491420  )
         7        Sb     tau(   7) = (   0.2533610   0.0833620   0.2500860  )
         8        Sb     tau(   8) = (   0.2501520   0.2490870   0.0839640  )
         9        In     tau(   9) = (   0.0000100   0.0087180   0.3288810  )
        10        In     tau(  10) = (  -0.0046090   0.1641760   0.4964710  )
        11        In     tau(  11) = (   0.1646460   0.0013050   0.4902660  )
        12        In     tau(  12) = (   0.1653990   0.1662110   0.3375130  )
        13        As     tau(  13) = (   0.0805830   0.0853810   0.4148600  )
        14        Sb     tau(  14) = (   0.0788290   0.2510710   0.5824950  )
        15        Sb     tau(  15) = (   0.2508620   0.0855180   0.5763230  )
        16        As     tau(  16) = (   0.2519960   0.2487440   0.4106630  )
        17        In     tau(  17) = (  -0.0112370   0.0033200   0.6672830  )
        18        In     tau(  18) = (  -0.0027310   0.1765630   0.8320680  )
        19        In     tau(  19) = (   0.1621540  -0.0044020   0.8404670  )
        20        In     tau(  20) = (   0.1655870   0.1664290   0.6658160  )
        21        Sb     tau(  21) = (   0.0797460   0.0831130   0.7526570  )
        22        As     tau(  22) = (   0.0781370   0.2532640   0.9173410  )
        23        Sb     tau(  23) = (   0.2470530   0.0832830   0.9228640  )
        24        Sb     tau(  24) = (   0.2470670   0.2530820   0.7541720  )
        25        In     tau(  25) = (  -0.0059600   0.3305310  -0.0021730  )
        26        In     tau(  26) = (  -0.0061120   0.4934100   0.1703330  )
        27        In     tau(  27) = (   0.1699540   0.3366090   0.1707870  )
        28        In     tau(  28) = (   0.1719990   0.5040280  -0.0009620  )
        29        Sb     tau(  29) = (   0.0832420   0.4160520   0.0811390  )
        30        Sb     tau(  30) = (   0.0813440   0.5832130   0.2470060  )
        31        As     tau(  31) = (   0.2529780   0.4162260   0.2499420  )
        32        As     tau(  32) = (   0.2511870   0.5829200   0.0857580  )
        33        In     tau(  33) = (  -0.0105290   0.3304320   0.3325310  )
        34        In     tau(  34) = (  -0.0104700   0.4987570   0.4993300  )
        35        In     tau(  35) = (   0.1701870   0.3273160   0.4940790  )
        36        In     tau(  36) = (   0.1681600   0.4948650   0.3283650  )
        37        Sb     tau(  37) = (   0.0791420   0.4144140   0.4147070  )
        38        Sb     tau(  38) = (   0.0790900   0.5796250   0.5841680  )
        39        Sb     tau(  39) = (   0.2490410   0.4136470   0.5843940  )
        40        Sb     tau(  40) = (   0.2522090   0.5826960   0.4110660  )
        41        In     tau(  41) = (  -0.0050710   0.3386580   0.6700140  )
        42        In     tau(  42) = (   0.0002330   0.4952830   0.8420300  )
        43        In     tau(  43) = (   0.1602040   0.3374700   0.8399460  )
        44        In     tau(  44) = (   0.1596340   0.4928480   0.6723670  )
        45        As     tau(  45) = (   0.0778730   0.4152680   0.7560490  )
        46        As     tau(  46) = (   0.0835720   0.5796940   0.9201240  )
        47        As     tau(  47) = (   0.2479500   0.4185540   0.9161160  )
        48        Sb     tau(  48) = (   0.2493480   0.5806010   0.7517640  )
        49        In     tau(  49) = (   0.0063410   0.6658370  -0.0000370  )
        50        In     tau(  50) = (  -0.0011590   0.8231170   0.1678310  )
        51        In     tau(  51) = (   0.1656210   0.6672300   0.1580080  )
        52        In     tau(  52) = (   0.1639270   0.8384350   0.0050360  )
        53        As     tau(  53) = (   0.0834980   0.7503150   0.0816210  )
        54        Sb     tau(  54) = (   0.0832060   0.9178640   0.2460590  )
        55        Sb     tau(  55) = (   0.2531910   0.7507450   0.2442130  )
        56        As     tau(  56) = (   0.2510740   0.9176300   0.0844490  )
        57        In     tau(  57) = (  -0.0083070   0.6646230   0.3327060  )
        58        In     tau(  58) = (  -0.0030200   0.8344850   0.4986780  )
        59        In     tau(  59) = (   0.1661140   0.6635430   0.4987720  )
        60        In     tau(  60) = (   0.1718450   0.8374270   0.3331210  )
        61        Sb     tau(  61) = (   0.0821950   0.7500090   0.4140040  )
        62        Sb     tau(  62) = (   0.0800680   0.9212710   0.5826590  )
        63        Sb     tau(  63) = (   0.2523420   0.7495780   0.5824520  )
        64        As     tau(  64) = (   0.2513270   0.9196080   0.4133170  )
        65        In     tau(  65) = (  -0.0044490   0.6661470   0.6687110  )
        66        In     tau(  66) = (  -0.0018060   0.8423600   0.8355300  )
        67        In     tau(  67) = (   0.1627240   0.6619230   0.8401910  )
        68        In     tau(  68) = (   0.1654100   0.8336580   0.6660490  )
        69        Sb     tau(  69) = (   0.0810200   0.7510720   0.7538910  )
        70        As     tau(  70) = (   0.0812950   0.9168410   0.9218350  )
        71        Sb     tau(  71) = (   0.2497020   0.7494820   0.9230870  )
        72        Sb     tau(  72) = (   0.2508090   0.9162960   0.7522940  )
        73        In     tau(  73) = (   0.3344800   0.0007020   0.0093840  )
        74        In     tau(  74) = (   0.3433730   0.1665860   0.1656560  )
        75        In     tau(  75) = (   0.5013310  -0.0003270   0.1656990  )
        76        In     tau(  76) = (   0.5049290   0.1639020   0.0065200  )
        77        As     tau(  77) = (   0.4212950   0.0821780   0.0854970  )
        78        As     tau(  78) = (   0.4200860   0.2481890   0.2494200  )
        79        As     tau(  79) = (   0.5805380   0.0807150   0.2490160  )
        80        As     tau(  80) = (   0.5835730   0.2487320   0.0868830  )
        81        In     tau(  81) = (   0.3394730  -0.0043600   0.3332300  )
        82        In     tau(  82) = (   0.3369890   0.1675010   0.4880180  )
        83        In     tau(  83) = (   0.5069520   0.0043840   0.4924780  )
        84        In     tau(  84) = (   0.4983050   0.1623270   0.3292540  )
        85        As     tau(  85) = (   0.4196000   0.0813370   0.4121980  )
        86        Sb     tau(  86) = (   0.4186560   0.2499720   0.5810780  )
        87        As     tau(  87) = (   0.5855800   0.0842780   0.5780270  )
        88        Sb     tau(  88) = (   0.5853410   0.2503680   0.4139320  )
        89        In     tau(  89) = (   0.3342260   0.0012830   0.6649200  )
        90        In     tau(  90) = (   0.3327310   0.1664850   0.8363230  )
        91        In     tau(  91) = (   0.5059320   0.0045830   0.8419920  )
        92        In     tau(  92) = (   0.5063600   0.1628630   0.6614870  )
        93        Sb     tau(  93) = (   0.4201800   0.0837470   0.7513900  )
        94        Sb     tau(  94) = (   0.4194240   0.2502970   0.9200950  )
        95        As     tau(  95) = (   0.5868910   0.0848460   0.9233230  )
        96        Sb     tau(  96) = (   0.5882550   0.2500640   0.7492050  )
        97        In     tau(  97) = (   0.3290340   0.3382820  -0.0027150  )
        98        In     tau(  98) = (   0.3314070   0.5031150   0.1707620  )
        99        In     tau(  99) = (   0.5042100   0.3296190   0.1711700  )
       100        In     tau( 100) = (   0.5057630   0.5038610   0.0059240  )
       101        Sb     tau( 101) = (   0.4173970   0.4169900   0.0869170  )
       102        As     tau( 102) = (   0.4213580   0.5832840   0.2447290  )
       103        As     tau( 103) = (   0.5855080   0.4172460   0.2466700  )
       104        As     tau( 104) = (   0.5849230   0.5846600   0.0863550  )
       105        In     tau( 105) = (   0.3330750   0.3288870   0.3270360  )
       106        In     tau( 106) = (   0.3336680   0.4991350   0.4991020  )
       107        In     tau( 107) = (   0.5061030   0.3377750   0.5019230  )
       108        In     tau( 108) = (   0.5046700   0.5029150   0.3244340  )
       109        Sb     tau( 109) = (   0.4195990   0.4167410   0.4112560  )
       110        Sb     tau( 110) = (   0.4210310   0.5810260   0.5846080  )
       111        As     tau( 111) = (   0.5881730   0.4163560   0.5832340  )
       112        As     tau( 112) = (   0.5847630   0.5807790   0.4109470  )
       113        In     tau( 113) = (   0.3382380   0.3351100   0.6718040  )
       114        In     tau( 114) = (   0.3351690   0.4932930   0.8345290  )
       115        In     tau( 115) = (   0.4998250   0.3360540   0.8307960  )
       116        In     tau( 116) = (   0.5049350   0.4925980   0.6679360  )
       117        As     tau( 117) = (   0.4194140   0.4167740   0.7509850  )
       118        Sb     tau( 118) = (   0.4171160   0.5844080   0.9198860  )
       119        Sb     tau( 119) = (   0.5880660   0.4156750   0.9196450  )
       120        Sb     tau( 120) = (   0.5866440   0.5837680   0.7521710  )
       121        In     tau( 121) = (   0.3356360   0.6673780   0.0119720  )
       122        In     tau( 122) = (   0.3395590   0.8385940   0.1629260  )
       123        In     tau( 123) = (   0.5028960   0.6683530   0.1673060  )
       124        In     tau( 124) = (   0.5067690   0.8274860   0.0064210  )
       125        As     tau( 125) = (   0.4212200   0.7505020   0.0872250  )
       126        As     tau( 126) = (   0.4203230   0.9181260   0.2470290  )
       127        As     tau( 127) = (   0.5831050   0.7518200   0.2492680  )
       128        As     tau( 128) = (   0.5828260   0.9162560   0.0851390  )
       129        In     tau( 129) = (   0.3412740   0.6637830   0.3250980  )
       130        In     tau( 130) = (   0.3309540   0.8374490   0.4935500  )
       131        In     tau( 131) = (   0.5064240   0.6610000   0.4946300  )
       132        In     tau( 132) = (   0.5041110   0.8378640   0.3267570  )
       133        Sb     tau( 133) = (   0.4208360   0.7512000   0.4126160  )
       134        Sb     tau( 134) = (   0.4202850   0.9188040   0.5786530  )
       135        Sb     tau( 135) = (   0.5867930   0.7511410   0.5801690  )
       136        As     tau( 136) = (   0.5843440   0.9187370   0.4104030  )
       137        In     tau( 137) = (   0.3390620   0.6685810   0.6718090  )
       138        In     tau( 138) = (   0.3384360   0.8297500   0.8340840  )
       139        In     tau( 139) = (   0.5018880   0.6728950   0.8361220  )
       140        In     tau( 140) = (   0.4975500   0.8304560   0.6689230  )
       141        As     tau( 141) = (   0.4193760   0.7498640   0.7525760  )
       142        Sb     tau( 142) = (   0.4206580   0.9153670   0.9235580  )
       143        As     tau( 143) = (   0.5857460   0.7481930   0.9200580  )
       144        Sb     tau( 144) = (   0.5846170   0.9157870   0.7536380  )
       145        In     tau( 145) = (   0.6640990  -0.0051940  -0.0006080  )
       146        In     tau( 146) = (   0.6585470   0.1650060   0.1691720  )
       147        In     tau( 147) = (   0.8320690   0.0002110   0.1761230  )
       148        In     tau( 148) = (   0.8320200   0.1729770   0.0025340  )
       149        Sb     tau( 149) = (   0.7478420   0.0823000   0.0854240  )
       150        Sb     tau( 150) = (   0.7501230   0.2523680   0.2467470  )
       151        As     tau( 151) = (   0.9158280   0.0867010   0.2487640  )
       152        As     tau( 152) = (   0.9156490   0.2514580   0.0828670  )
       153        In     tau( 153) = (   0.6639360  -0.0010920   0.3286740  )
       154        In     tau( 154) = (   0.6698110   0.1697800   0.5050900  )
       155        In     tau( 155) = (   0.8360070   0.0043150   0.5038770  )
       156        In     tau( 156) = (   0.8380410   0.1689950   0.3317160  )
       157        Sb     tau( 157) = (   0.7499310   0.0843260   0.4150370  )
       158        As     tau( 158) = (   0.7525930   0.2523960   0.5835070  )
       159        As     tau( 159) = (   0.9144360   0.0881420   0.5834530  )
       160        As     tau( 160) = (   0.9135940   0.2488430   0.4175610  )
       161        In     tau( 161) = (   0.6619910   0.0041060   0.6627330  )
       162        In     tau( 162) = (   0.6690920   0.1681650   0.8442580  )
       163        In     tau( 163) = (   0.8306130  -0.0050560   0.8341950  )
       164        In     tau( 164) = (   0.8366150   0.1736870   0.6647150  )
       165        Sb     tau( 165) = (   0.7500420   0.0864770   0.7498690  )
       166        As     tau( 166) = (   0.7516800   0.2523870   0.9201350  )
       167        Sb     tau( 167) = (   0.9157360   0.0854380   0.9170790  )
       168        As     tau( 168) = (   0.9143420   0.2552740   0.7498740  )
       169        In     tau( 169) = (   0.6699240   0.3275540   0.0062410  )
       170        In     tau( 170) = (   0.6651790   0.4958780   0.1612370  )
       171        In     tau( 171) = (   0.8353750   0.3374350   0.1612700  )
       172        In     tau( 172) = (   0.8286320   0.4957750  -0.0040900  )
       173        As     tau( 173) = (   0.7498710   0.4155990   0.0811730  )
       174        Sb     tau( 174) = (   0.7476920   0.5812620   0.2504940  )
       175        As     tau( 175) = (   0.9114540   0.4141130   0.2512770  )
       176        Sb     tau( 176) = (   0.9150940   0.5812230   0.0815830  )
       177        In     tau( 177) = (   0.6690130   0.3417990   0.3318290  )
       178        In     tau( 178) = (   0.6632000   0.4973550   0.4949130  )
       179        In     tau( 179) = (   0.8316430   0.3309750   0.4986290  )
       180        In     tau( 180) = (   0.8329360   0.4953560   0.3361900  )
       181        As     tau( 181) = (   0.7506010   0.4160830   0.4185080  )
       182        Sb     tau( 182) = (   0.7500280   0.5808970   0.5808750  )
       183        As     tau( 183) = (   0.9133240   0.4127210   0.5811610  )
       184        As     tau( 184) = (   0.9125580   0.5812470   0.4141800  )
       185        In     tau( 185) = (   0.6732200   0.3365440   0.6635990  )
       186        In     tau( 186) = (   0.6757870   0.4979580   0.8332230  )
       187        In     tau( 187) = (   0.8315710   0.3330920   0.8337590  )
       188        In     tau( 188) = (   0.8334320   0.4905570   0.6649640  )
       189        As     tau( 189) = (   0.7525050   0.4142170   0.7498220  )
       190        As     tau( 190) = (   0.7487750   0.5809570   0.9180500  )
       191        As     tau( 191) = (   0.9128180   0.4134290   0.9174330  )
       192        Sb     tau( 192) = (   0.9137490   0.5777180   0.7540280  )
       193        In     tau( 193) = (   0.6633860   0.6599670  -0.0020640  )
       194        In     tau( 194) = (   0.6624350   0.8371920   0.1694160  )
       195        In     tau( 195) = (   0.8342610   0.6691750   0.1686000  )
       196        In     tau( 196) = (   0.8281630   0.8385920  -0.0010120  )
       197        Sb     tau( 197) = (   0.7452130   0.7505030   0.0830210  )
       198        As     tau( 198) = (   0.7463600   0.9164740   0.2499600  )
       199        As     tau( 199) = (   0.9134160   0.7487650   0.2512250  )
       200        Sb     tau( 200) = (   0.9168660   0.9169990   0.0871890  )
       201        In     tau( 201) = (   0.6619500   0.6698980   0.3332860  )
       202        In     tau( 202) = (   0.6678160   0.8361980   0.4891670  )
       203        In     tau( 203) = (   0.8291310   0.6661100   0.4893620  )
       204        In     tau( 204) = (   0.8272630   0.8315740   0.3275870  )
       205        As     tau( 205) = (   0.7473030   0.7503680   0.4104000  )
       206        Sb     tau( 206) = (   0.7498790   0.9160070   0.5841540  )
       207        Sb     tau( 207) = (   0.9099740   0.7495680   0.5824220  )
       208        Sb     tau( 208) = (   0.9142040   0.9196220   0.4113580  )
       209        In     tau( 209) = (   0.6729190   0.6711220   0.6694610  )
       210        In     tau( 210) = (   0.6694220   0.8286170   0.8394060  )
       211        In     tau( 211) = (   0.8267380   0.6642550   0.8368620  )
       212        In     tau( 212) = (   0.8308070   0.8322440   0.6771430  )
       213        As     tau( 213) = (   0.7500570   0.7492230   0.7564330  )
       214        As     tau( 214) = (   0.7470910   0.9163120   0.9164080  )
       215        Sb     tau( 215) = (   0.9156600   0.7510990   0.9176940  )
       216        As     tau( 216) = (   0.9138250   0.9178990   0.7518390  )

     number of k points=     8
                       cart. coord. in units 2pi/alat
        k(    1) = (   0.0000000   0.0000000   0.0000000), wk =   0.2500000
        k(    2) = (   0.0000000   0.0000000  -0.5000000), wk =   0.2500000
        k(    3) = (   0.0000000  -0.5000000  -0.5000000), wk =   0.2500000
        k(    4) = (  -0.5000000  -0.5000000  -0.5000000), wk =   0.2500000
        k(    5) = (  -0.5000000   0.0000000   0.0000000), wk =   0.2500000
        k(    6) = (   0.0000000  -0.5000000   0.0000000), wk =   0.2500000
        k(    7) = (  -0.5000000   0.0000000   0.5000000), wk =   0.2500000
        k(    8) = (  -0.5000000   0.5000000   0.0000000), wk =   0.2500000

     Dense  grid:  8121473 G-vectors     FFT dimensions: ( 250, 250, 250)

     Estimated max dynamical RAM per process >       3.11 GB

     Estimated total dynamical RAM >    1977.74 GB

     Initial potential from superposition of free atoms

     starting charge    3023.5361, renormalised to    3024.0000

     STARTING HUBBARD OCCUPATIONS:

     =================== HUBBARD OCCUPATIONS ===================
     ------------------------ ATOM    1 ------------------------
     Tr[ns(  1)] =   1.00000
     eigenvalues:
       0.167  0.167  0.167
     eigenvectors (columns):
       1.000  0.000  0.000
       0.000  1.000  0.000
       0.000  0.000  1.000
     occupation matrix ns (before diag.):
       0.167  0.000  0.000
       0.000  0.167  0.000
       0.000  0.000  0.167
     ------------------------ ATOM    2 ------------------------
     Tr[ns(  2)] =   1.00000
     eigenvalues:
       0.167  0.167  0.167
     eigenvectors (columns):
       1.000  0.000  0.000
       0.000  1.000  0.000
       0.000  0.000  1.000
     occupation matrix ns (before diag.):
       0.167  0.000  0.000
       0.000  0.167  0.000
       0.000  0.000  0.167
     ------------------------ ATOM    3 ------------------------
     Tr[ns(  3)] =   1.00000
     eigenvalues:
       0.167  0.167  0.167
     eigenvectors (columns):
       1.000  0.000  0.000
       0.000  1.000  0.000
       0.000  0.000  1.000
     occupation matrix ns (before diag.):
       0.167  0.000  0.000
       0.000  0.167  0.000
       0.000  0.000  0.167
     ------------------------ ATOM    4 ------------------------
     Tr[ns(  4)] =   1.00000
     eigenvalues:
       0.167  0.167  0.167
     eigenvectors (columns):
       1.000  0.000  0.000
       0.000  1.000  0.000
       0.000  0.000  1.000
     occupation matrix ns (before diag.):
       0.167  0.000  0.000
       0.000  0.167  0.000
       0.000  0.000  0.167
     ------------------------ ATOM    5 ------------------------
     Tr[ns(  5)] =   3.00000
     eigenvalues:
       0.500  0.500  0.500
     eigenvectors (columns):
       1.000  0.000  0.000
       0.000  1.000  0.000
       0.000  0.000  1.000
     occupation matrix ns (before diag.):
       0.500  0.000  0.000
       0.000  0.500  0.000
       0.000  0.000  0.500
     ------------------------ ATOM    6 ------------------------
     Tr[ns(  6)] =   3.00000
     eigenvalues:
       0.500  0.500  0.500
     eigenvectors (columns):
       1.000  0.000  0.000
       0.000  1.000  0.000
       0.000  0.000  1.000
     occupation matrix ns (before diag.):
       0.500  0.000  0.000
       0.000  0.500  0.000
       0.000  0.000  0.500
     ------------------------ ATOM    7 ------------------------
     Tr[ns(  7)] =   3.00000
     eigenvalues:
       0.500  0.500  0.500
     eigenvectors (columns):
       1.000  0.000  0.000
       0.000  1.000  0.000
       0.000  0.000  1.000
     occupation matrix ns (before diag.):
       0.500  0.000  0.000
       0.000  0.500  0.000
       0.000  0.000  0.500
     ------------------------ ATOM    8 ------------------------
     Tr[ns(  8)] =   3.00000
     eigenvalues:
       0.500  0.500  0.500
     eigenvectors (columns):
       1.000  0.000  0.000
       0.000  1.000  0.000
       0.000  0.000  1.000
     occupation matrix ns (before diag.):
       0.500  0.000  0.000
       0.000  0.500  0.000
       0.000  0.000  0.500
     ------------------------ ATOM    9 ------------------------
     Tr[ns(  9)] =   1.00000
     eigenvalues:
       0.167  0.167  0.167
     eigenvectors (columns):
       1.000  0.000  0.000
       0.000  1.000  0.000
       0.000  0.000  1.000
     occupation matrix ns (before diag.):
       0.167  0.000  0.000
       0.000  0.167  0.000
       0.000  0.000  0.167
     ------------------------ ATOM   10 ------------------------
     Tr[ns( 10)] =   1.00000
     eigenvalues:
       0.167  0.167  0.167
     eigenvectors (columns):
       1.000  0.000  0.000
       0.000  1.000  0.000
       0.000  0.000  1.000
     occupation matrix ns (before diag.):
       0.167  0.000  0.000
       0.000  0.167  0.000
       0.000  0.000  0.167
     ------------------------ ATOM   11 ------------------------
     Tr[ns( 11)] =   1.00000
     eigenvalues:
       0.167  0.167  0.167
     eigenvectors (columns):
       1.000  0.000  0.000
       0.000  1.000  0.000
       0.000  0.000  1.000
     occupation matrix ns (before diag.):
       0.167  0.000  0.000
       0.000  0.167  0.000
       0.000  0.000  0.167
     ------------------------ ATOM   12 ------------------------
     Tr[ns( 12)] =   1.00000
     eigenvalues:
       0.167  0.167  0.167
     eigenvectors (columns):
       1.000  0.000  0.000
       0.000  1.000  0.000
       0.000  0.000  1.000
     occupation matrix ns (before diag.):
       0.167  0.000  0.000
       0.000  0.167  0.000
       0.000  0.000  0.167
     ------------------------ ATOM   13 ------------------------
     Tr[ns( 13)] =   3.00000
     eigenvalues:
       0.500  0.500  0.500
     eigenvectors (columns):
       1.000  0.000  0.000
       0.000  1.000  0.000
       0.000  0.000  1.000
     occupation matrix ns (before diag.):
       0.500  0.000  0.000
       0.000  0.500  0.000
       0.000  0.000  0.500
     ------------------------ ATOM   14 ------------------------
     Tr[ns( 14)] =   3.00000
     eigenvalues:
       0.500  0.500  0.500
     eigenvectors (columns):
       1.000  0.000  0.000
       0.000  1.000  0.000
       0.000  0.000  1.000
     occupation matrix ns (before diag.):
       0.500  0.000  0.000
       0.000  0.500  0.000
       0.000  0.000  0.500
     ------------------------ ATOM   15 ------------------------
     Tr[ns( 15)] =   3.00000
     eigenvalues:
       0.500  0.500  0.500
     eigenvectors (columns):
       1.000  0.000  0.000
       0.000  1.000  0.000
       0.000  0.000  1.000
     occupation matrix ns (before diag.):
       0.500  0.000  0.000
       0.000  0.500  0.000
       0.000  0.000  0.500
     ------------------------ ATOM   16 ------------------------
     Tr[ns( 16)] =   3.00000
     eigenvalues:
       0.500  0.500  0.500
     eigenvectors (columns):
       1.000  0.000  0.000
       0.000  1.000  0.000
       0.000  0.000  1.000
     occupation matrix ns (before diag.):
       0.500  0.000  0.000
       0.000  0.500  0.000
       0.000  0.000  0.500
     ------------------------ ATOM   17 ------------------------
     Tr[ns( 17)] =   1.00000
     eigenvalues:
       0.167  0.167  0.167
     eigenvectors (columns):
       1.000  0.000  0.000
       0.000  1.000  0.000
       0.000  0.000  1.000
     occupation matrix ns (before diag.):
       0.167  0.000  0.000
       0.000  0.167  0.000
       0.000  0.000  0.167
     ------------------------ ATOM   18 ------------------------
     Tr[ns( 18)] =   1.00000
     eigenvalues:
       0.167  0.167  0.167
     eigenvectors (columns):
       1.000  0.000  0.000
       0.000  1.000  0.000
       0.000  0.000  1.000
     occupation matrix ns (before diag.):
       0.167  0.000  0.000
       0.000  0.167  0.000
       0.000  0.000  0.167
     ------------------------ ATOM   19 ------------------------
     Tr[ns( 19)] =   1.00000
     eigenvalues:
       0.167  0.167  0.167
     eigenvectors (columns):
       1.000  0.000  0.000
       0.000  1.000  0.000
       0.000  0.000  1.000
     occupation matrix ns (before diag.):
       0.167  0.000  0.000
       0.000  0.167  0.000
       0.000  0.000  0.167
     ------------------------ ATOM   20 ------------------------
     Tr[ns( 20)] =   1.00000
     eigenvalues:
       0.167  0.167  0.167
     eigenvectors (columns):
       1.000  0.000  0.000
       0.000  1.000  0.000
       0.000  0.000  1.000
     occupation matrix ns (before diag.):
       0.167  0.000  0.000
       0.000  0.167  0.000
       0.000  0.000  0.167
     ------------------------ ATOM   21 ------------------------
     Tr[ns( 21)] =   3.00000
     eigenvalues:
       0.500  0.500  0.500
     eigenvectors (columns):
       1.000  0.000  0.000
       0.000  1.000  0.000
       0.000  0.000  1.000
     occupation matrix ns (before diag.):
       0.500  0.000  0.000
       0.000  0.500  0.000
       0.000  0.000  0.500
     ------------------------ ATOM   22 ------------------------
     Tr[ns( 22)] =   3.00000
     eigenvalues:
       0.500  0.500  0.500
     eigenvectors (columns):
       1.000  0.000  0.000
       0.000  1.000  0.000
       0.000  0.000  1.000
     occupation matrix ns (before diag.):
       0.500  0.000  0.000
       0.000  0.500  0.000
       0.000  0.000  0.500
     ------------------------ ATOM   23 ------------------------
     Tr[ns( 23)] =   3.00000
     eigenvalues:
       0.500  0.500  0.500
     eigenvectors (columns):
       1.000  0.000  0.000
       0.000  1.000  0.000
       0.000  0.000  1.000
     occupation matrix ns (before diag.):
       0.500  0.000  0.000
       0.000  0.500  0.000
       0.000  0.000  0.500
     ------------------------ ATOM   24 ------------------------
     Tr[ns( 24)] =   3.00000
     eigenvalues:
       0.500  0.500  0.500
     eigenvectors (columns):
       1.000  0.000  0.000
       0.000  1.000  0.000
       0.000  0.000  1.000
     occupation matrix ns (before diag.):
       0.500  0.000  0.000
       0.000  0.500  0.000
       0.000  0.000  0.500
     ------------------------ ATOM   25 ------------------------
     Tr[ns( 25)] =   1.00000
     eigenvalues:
       0.167  0.167  0.167
     eigenvectors (columns):
       1.000  0.000  0.000
       0.000  1.000  0.000
       0.000  0.000  1.000
     occupation matrix ns (before diag.):
       0.167  0.000  0.000
       0.000  0.167  0.000
       0.000  0.000  0.167
     ------------------------ ATOM   26 ------------------------
     Tr[ns( 26)] =   1.00000
     eigenvalues:
       0.167  0.167  0.167
     eigenvectors (columns):
       1.000  0.000  0.000
       0.000  1.000  0.000
       0.000  0.000  1.000
     occupation matrix ns (before diag.):
       0.167  0.000  0.000
       0.000  0.167  0.000
       0.000  0.000  0.167
     ------------------------ ATOM   27 ------------------------
     Tr[ns( 27)] =   1.00000
     eigenvalues:
       0.167  0.167  0.167
     eigenvectors (columns):
       1.000  0.000  0.000
       0.000  1.000  0.000
       0.000  0.000  1.000
     occupation matrix ns (before diag.):
       0.167  0.000  0.000
       0.000  0.167  0.000
       0.000  0.000  0.167
     ------------------------ ATOM   28 ------------------------
     Tr[ns( 28)] =   1.00000
     eigenvalues:
       0.167  0.167  0.167
     eigenvectors (columns):
       1.000  0.000  0.000
       0.000  1.000  0.000
       0.000  0.000  1.000
     occupation matrix ns (before diag.):
       0.167  0.000  0.000
       0.000  0.167  0.000
       0.000  0.000  0.167
     ------------------------ ATOM   29 ------------------------
     Tr[ns( 29)] =   3.00000
     eigenvalues:
       0.500  0.500  0.500
     eigenvectors (columns):
       1.000  0.000  0.000
       0.000  1.000  0.000
       0.000  0.000  1.000
     occupation matrix ns (before diag.):
       0.500  0.000  0.000
       0.000  0.500  0.000
       0.000  0.000  0.500
     ------------------------ ATOM   30 ------------------------
     Tr[ns( 30)] =   3.00000
     eigenvalues:
       0.500  0.500  0.500
     eigenvectors (columns):
       1.000  0.000  0.000
       0.000  1.000  0.000
       0.000  0.000  1.000
     occupation matrix ns (before diag.):
       0.500  0.000  0.000
       0.000  0.500  0.000
       0.000  0.000  0.500
     ------------------------ ATOM   31 ------------------------
     Tr[ns( 31)] =   3.00000
     eigenvalues:
       0.500  0.500  0.500
     eigenvectors (columns):
       1.000  0.000  0.000
       0.000  1.000  0.000
       0.000  0.000  1.000
     occupation matrix ns (before diag.):
       0.500  0.000  0.000
       0.000  0.500  0.000
       0.000  0.000  0.500
     ------------------------ ATOM   32 ------------------------
     Tr[ns( 32)] =   3.00000
     eigenvalues:
       0.500  0.500  0.500
     eigenvectors (columns):
       1.000  0.000  0.000
       0.000  1.000  0.000
       0.000  0.000  1.000
     occupation matrix ns (before diag.):
       0.500  0.000  0.000
       0.000  0.500  0.000
       0.000  0.000  0.500
     ------------------------ ATOM   33 ------------------------
     Tr[ns( 33)] =   1.00000
     eigenvalues:
       0.167  0.167  0.167
     eigenvectors (columns):
       1.000  0.000  0.000
       0.000  1.000  0.000
       0.000  0.000  1.000
     occupation matrix ns (before diag.):
       0.167  0.000  0.000
       0.000  0.167  0.000
       0.000  0.000  0.167
     ------------------------ ATOM   34 ------------------------
     Tr[ns( 34)] =   1.00000
     eigenvalues:
       0.167  0.167  0.167
     eigenvectors (columns):
       1.000  0.000  0.000
       0.000  1.000  0.000
       0.000  0.000  1.000
     occupation matrix ns (before diag.):
       0.167  0.000  0.000
       0.000  0.167  0.000
       0.000  0.000  0.167
     ------------------------ ATOM   35 ------------------------
     Tr[ns( 35)] =   1.00000
     eigenvalues:
       0.167  0.167  0.167
     eigenvectors (columns):
       1.000  0.000  0.000
       0.000  1.000  0.000
       0.000  0.000  1.000
     occupation matrix ns (before diag.):
       0.167  0.000  0.000
       0.000  0.167  0.000
       0.000  0.000  0.167
     ------------------------ ATOM   36 ------------------------
     Tr[ns( 36)] =   1.00000
     eigenvalues:
       0.167  0.167  0.167
     eigenvectors (columns):
       1.000  0.000  0.000
       0.000  1.000  0.000
       0.000  0.000  1.000
     occupation matrix ns (before diag.):
       0.167  0.000  0.000
       0.000  0.167  0.000
       0.000  0.000  0.167
     ------------------------ ATOM   37 ------------------------
     Tr[ns( 37)] =   3.00000
     eigenvalues:
       0.500  0.500  0.500
     eigenvectors (columns):
       1.000  0.000  0.000
       0.000  1.000  0.000
       0.000  0.000  1.000
     occupation matrix ns (before diag.):
       0.500  0.000  0.000
       0.000  0.500  0.000
       0.000  0.000  0.500
     ------------------------ ATOM   38 ------------------------
     Tr[ns( 38)] =   3.00000
     eigenvalues:
       0.500  0.500  0.500
     eigenvectors (columns):
       1.000  0.000  0.000
       0.000  1.000  0.000
       0.000  0.000  1.000
     occupation matrix ns (before diag.):
       0.500  0.000  0.000
       0.000  0.500  0.000
       0.000  0.000  0.500
     ------------------------ ATOM   39 ------------------------
     Tr[ns( 39)] =   3.00000
     eigenvalues:
       0.500  0.500  0.500
     eigenvectors (columns):
       1.000  0.000  0.000
       0.000  1.000  0.000
       0.000  0.000  1.000
     occupation matrix ns (before diag.):
       0.500  0.000  0.000
       0.000  0.500  0.000
       0.000  0.000  0.500
     ------------------------ ATOM   40 ------------------------
     Tr[ns( 40)] =   3.00000
     eigenvalues:
       0.500  0.500  0.500
     eigenvectors (columns):
       1.000  0.000  0.000
       0.000  1.000  0.000
       0.000  0.000  1.000
     occupation matrix ns (before diag.):
       0.500  0.000  0.000
       0.000  0.500  0.000
       0.000  0.000  0.500
     ------------------------ ATOM   41 ------------------------
     Tr[ns( 41)] =   1.00000
     eigenvalues:
       0.167  0.167  0.167
     eigenvectors (columns):
       1.000  0.000  0.000
       0.000  1.000  0.000
       0.000  0.000  1.000
     occupation matrix ns (before diag.):
       0.167  0.000  0.000
       0.000  0.167  0.000
       0.000  0.000  0.167
     ------------------------ ATOM   42 ------------------------
     Tr[ns( 42)] =   1.00000
     eigenvalues:
       0.167  0.167  0.167
     eigenvectors (columns):
       1.000  0.000  0.000
       0.000  1.000  0.000
       0.000  0.000  1.000
     occupation matrix ns (before diag.):
       0.167  0.000  0.000
       0.000  0.167  0.000
       0.000  0.000  0.167
     ------------------------ ATOM   43 ------------------------
     Tr[ns( 43)] =   1.00000
     eigenvalues:
       0.167  0.167  0.167
     eigenvectors (columns):
       1.000  0.000  0.000
       0.000  1.000  0.000
       0.000  0.000  1.000
     occupation matrix ns (before diag.):
       0.167  0.000  0.000
       0.000  0.167  0.000
       0.000  0.000  0.167
     ------------------------ ATOM   44 ------------------------
     Tr[ns( 44)] =   1.00000
     eigenvalues:
       0.167  0.167  0.167
     eigenvectors (columns):
       1.000  0.000  0.000
       0.000  1.000  0.000
       0.000  0.000  1.000
     occupation matrix ns (before diag.):
       0.167  0.000  0.000
       0.000  0.167  0.000
       0.000  0.000  0.167
     ------------------------ ATOM   45 ------------------------
     Tr[ns( 45)] =   3.00000
     eigenvalues:
       0.500  0.500  0.500
     eigenvectors (columns):
       1.000  0.000  0.000
       0.000  1.000  0.000
       0.000  0.000  1.000
     occupation matrix ns (before diag.):
       0.500  0.000  0.000
       0.000  0.500  0.000
       0.000  0.000  0.500
     ------------------------ ATOM   46 ------------------------
     Tr[ns( 46)] =   3.00000
     eigenvalues:
       0.500  0.500  0.500
     eigenvectors (columns):
       1.000  0.000  0.000
       0.000  1.000  0.000
       0.000  0.000  1.000
     occupation matrix ns (before diag.):
       0.500  0.000  0.000
       0.000  0.500  0.000
       0.000  0.000  0.500
     ------------------------ ATOM   47 ------------------------
     Tr[ns( 47)] =   3.00000
     eigenvalues:
       0.500  0.500  0.500
     eigenvectors (columns):
       1.000  0.000  0.000
       0.000  1.000  0.000
       0.000  0.000  1.000
     occupation matrix ns (before diag.):
       0.500  0.000  0.000
       0.000  0.500  0.000
       0.000  0.000  0.500
     ------------------------ ATOM   48 ------------------------
     Tr[ns( 48)] =   3.00000
     eigenvalues:
       0.500  0.500  0.500
     eigenvectors (columns):
       1.000  0.000  0.000
       0.000  1.000  0.000
       0.000  0.000  1.000
     occupation matrix ns (before diag.):
       0.500  0.000  0.000
       0.000  0.500  0.000
       0.000  0.000  0.500
     ------------------------ ATOM   49 ------------------------
     Tr[ns( 49)] =   1.00000
     eigenvalues:
       0.167  0.167  0.167
     eigenvectors (columns):
       1.000  0.000  0.000
       0.000  1.000  0.000
       0.000  0.000  1.000
     occupation matrix ns (before diag.):
       0.167  0.000  0.000
       0.000  0.167  0.000
       0.000  0.000  0.167
     ------------------------ ATOM   50 ------------------------
     Tr[ns( 50)] =   1.00000
     eigenvalues:
       0.167  0.167  0.167
     eigenvectors (columns):
       1.000  0.000  0.000
       0.000  1.000  0.000
       0.000  0.000  1.000
     occupation matrix ns (before diag.):
       0.167  0.000  0.000
       0.000  0.167  0.000
       0.000  0.000  0.167
     ------------------------ ATOM   51 ------------------------
     Tr[ns( 51)] =   1.00000
     eigenvalues:
       0.167  0.167  0.167
     eigenvectors (columns):
       1.000  0.000  0.000
       0.000  1.000  0.000
       0.000  0.000  1.000
     occupation matrix ns (before diag.):
       0.167  0.000  0.000
       0.000  0.167  0.000
       0.000  0.000  0.167
     ------------------------ ATOM   52 ------------------------
     Tr[ns( 52)] =   1.00000
     eigenvalues:
       0.167  0.167  0.167
     eigenvectors (columns):
       1.000  0.000  0.000
       0.000  1.000  0.000
       0.000  0.000  1.000
     occupation matrix ns (before diag.):
       0.167  0.000  0.000
       0.000  0.167  0.000
       0.000  0.000  0.167
     ------------------------ ATOM   53 ------------------------
     Tr[ns( 53)] =   3.00000
     eigenvalues:
       0.500  0.500  0.500
     eigenvectors (columns):
       1.000  0.000  0.000
       0.000  1.000  0.000
       0.000  0.000  1.000
     occupation matrix ns (before diag.):
       0.500  0.000  0.000
       0.000  0.500  0.000
       0.000  0.000  0.500
     ------------------------ ATOM   54 ------------------------
     Tr[ns( 54)] =   3.00000
     eigenvalues:
       0.500  0.500  0.500
     eigenvectors (columns):
       1.000  0.000  0.000
       0.000  1.000  0.000
       0.000  0.000  1.000
     occupation matrix ns (before diag.):
       0.500  0.000  0.000
       0.000  0.500  0.000
       0.000  0.000  0.500
     ------------------------ ATOM   55 ------------------------
     Tr[ns( 55)] =   3.00000
     eigenvalues:
       0.500  0.500  0.500
     eigenvectors (columns):
       1.000  0.000  0.000
       0.000  1.000  0.000
       0.000  0.000  1.000
     occupation matrix ns (before diag.):
       0.500  0.000  0.000
       0.000  0.500  0.000
       0.000  0.000  0.500
     ------------------------ ATOM   56 ------------------------
     Tr[ns( 56)] =   3.00000
     eigenvalues:
       0.500  0.500  0.500
     eigenvectors (columns):
       1.000  0.000  0.000
       0.000  1.000  0.000
       0.000  0.000  1.000
     occupation matrix ns (before diag.):
       0.500  0.000  0.000
       0.000  0.500  0.000
       0.000  0.000  0.500
     ------------------------ ATOM   57 ------------------------
     Tr[ns( 57)] =   1.00000
     eigenvalues:
       0.167  0.167  0.167
     eigenvectors (columns):
       1.000  0.000  0.000
       0.000  1.000  0.000
       0.000  0.000  1.000
     occupation matrix ns (before diag.):
       0.167  0.000  0.000
       0.000  0.167  0.000
       0.000  0.000  0.167
     ------------------------ ATOM   58 ------------------------
     Tr[ns( 58)] =   1.00000
     eigenvalues:
       0.167  0.167  0.167
     eigenvectors (columns):
       1.000  0.000  0.000
       0.000  1.000  0.000
       0.000  0.000  1.000
     occupation matrix ns (before diag.):
       0.167  0.000  0.000
       0.000  0.167  0.000
       0.000  0.000  0.167
     ------------------------ ATOM   59 ------------------------
     Tr[ns( 59)] =   1.00000
     eigenvalues:
       0.167  0.167  0.167
     eigenvectors (columns):
       1.000  0.000  0.000
       0.000  1.000  0.000
       0.000  0.000  1.000
     occupation matrix ns (before diag.):
       0.167  0.000  0.000
       0.000  0.167  0.000
       0.000  0.000  0.167
     ------------------------ ATOM   60 ------------------------
     Tr[ns( 60)] =   1.00000
     eigenvalues:
       0.167  0.167  0.167
     eigenvectors (columns):
       1.000  0.000  0.000
       0.000  1.000  0.000
       0.000  0.000  1.000
     occupation matrix ns (before diag.):
       0.167  0.000  0.000
       0.000  0.167  0.000
       0.000  0.000  0.167
     ------------------------ ATOM   61 ------------------------
     Tr[ns( 61)] =   3.00000
     eigenvalues:
       0.500  0.500  0.500
     eigenvectors (columns):
       1.000  0.000  0.000
       0.000  1.000  0.000
       0.000  0.000  1.000
     occupation matrix ns (before diag.):
       0.500  0.000  0.000
       0.000  0.500  0.000
       0.000  0.000  0.500
     ------------------------ ATOM   62 ------------------------
     Tr[ns( 62)] =   3.00000
     eigenvalues:
       0.500  0.500  0.500
     eigenvectors (columns):
       1.000  0.000  0.000
       0.000  1.000  0.000
       0.000  0.000  1.000
     occupation matrix ns (before diag.):
       0.500  0.000  0.000
       0.000  0.500  0.000
       0.000  0.000  0.500
     ------------------------ ATOM   63 ------------------------
     Tr[ns( 63)] =   3.00000
     eigenvalues:
       0.500  0.500  0.500
     eigenvectors (columns):
       1.000  0.000  0.000
       0.000  1.000  0.000
       0.000  0.000  1.000
     occupation matrix ns (before diag.):
       0.500  0.000  0.000
       0.000  0.500  0.000
       0.000  0.000  0.500
     ------------------------ ATOM   64 ------------------------
     Tr[ns( 64)] =   3.00000
     eigenvalues:
       0.500  0.500  0.500
     eigenvectors (columns):
       1.000  0.000  0.000
       0.000  1.000  0.000
       0.000  0.000  1.000
     occupation matrix ns (before diag.):
       0.500  0.000  0.000
       0.000  0.500  0.000
       0.000  0.000  0.500
     ------------------------ ATOM   65 ------------------------
     Tr[ns( 65)] =   1.00000
     eigenvalues:
       0.167  0.167  0.167
     eigenvectors (columns):
       1.000  0.000  0.000
       0.000  1.000  0.000
       0.000  0.000  1.000
     occupation matrix ns (before diag.):
       0.167  0.000  0.000
       0.000  0.167  0.000
       0.000  0.000  0.167
     ------------------------ ATOM   66 ------------------------
     Tr[ns( 66)] =   1.00000
     eigenvalues:
       0.167  0.167  0.167
     eigenvectors (columns):
       1.000  0.000  0.000
       0.000  1.000  0.000
       0.000  0.000  1.000
     occupation matrix ns (before diag.):
       0.167  0.000  0.000
       0.000  0.167  0.000
       0.000  0.000  0.167
     ------------------------ ATOM   67 ------------------------
     Tr[ns( 67)] =   1.00000
     eigenvalues:
       0.167  0.167  0.167
     eigenvectors (columns):
       1.000  0.000  0.000
       0.000  1.000  0.000
       0.000  0.000  1.000
     occupation matrix ns (before diag.):
       0.167  0.000  0.000
       0.000  0.167  0.000
       0.000  0.000  0.167
     ------------------------ ATOM   68 ------------------------
     Tr[ns( 68)] =   1.00000
     eigenvalues:
       0.167  0.167  0.167
     eigenvectors (columns):
       1.000  0.000  0.000
       0.000  1.000  0.000
       0.000  0.000  1.000
     occupation matrix ns (before diag.):
       0.167  0.000  0.000
       0.000  0.167  0.000
       0.000  0.000  0.167
     ------------------------ ATOM   69 ------------------------
     Tr[ns( 69)] =   3.00000
     eigenvalues:
       0.500  0.500  0.500
     eigenvectors (columns):
       1.000  0.000  0.000
       0.000  1.000  0.000
       0.000  0.000  1.000
     occupation matrix ns (before diag.):
       0.500  0.000  0.000
       0.000  0.500  0.000
       0.000  0.000  0.500
     ------------------------ ATOM   70 ------------------------
     Tr[ns( 70)] =   3.00000
     eigenvalues:
       0.500  0.500  0.500
     eigenvectors (columns):
       1.000  0.000  0.000
       0.000  1.000  0.000
       0.000  0.000  1.000
     occupation matrix ns (before diag.):
       0.500  0.000  0.000
       0.000  0.500  0.000
       0.000  0.000  0.500
     ------------------------ ATOM   71 ------------------------
     Tr[ns( 71)] =   3.00000
     eigenvalues:
       0.500  0.500  0.500
     eigenvectors (columns):
       1.000  0.000  0.000
       0.000  1.000  0.000
       0.000  0.000  1.000
     occupation matrix ns (before diag.):
       0.500  0.000  0.000
       0.000  0.500  0.000
       0.000  0.000  0.500
     ------------------------ ATOM   72 ------------------------
     Tr[ns( 72)] =   3.00000
     eigenvalues:
       0.500  0.500  0.500
     eigenvectors (columns):
       1.000  0.000  0.000
       0.000  1.000  0.000
       0.000  0.000  1.000
     occupation matrix ns (before diag.):
       0.500  0.000  0.000
       0.000  0.500  0.000
       0.000  0.000  0.500
     ------------------------ ATOM   73 ------------------------
     Tr[ns( 73)] =   1.00000
     eigenvalues:
       0.167  0.167  0.167
     eigenvectors (columns):
       1.000  0.000  0.000
       0.000  1.000  0.000
       0.000  0.000  1.000
     occupation matrix ns (before diag.):
       0.167  0.000  0.000
       0.000  0.167  0.000
       0.000  0.000  0.167
     ------------------------ ATOM   74 ------------------------
     Tr[ns( 74)] =   1.00000
     eigenvalues:
       0.167  0.167  0.167
     eigenvectors (columns):
       1.000  0.000  0.000
       0.000  1.000  0.000
       0.000  0.000  1.000
     occupation matrix ns (before diag.):
       0.167  0.000  0.000
       0.000  0.167  0.000
       0.000  0.000  0.167
     ------------------------ ATOM   75 ------------------------
     Tr[ns( 75)] =   1.00000
     eigenvalues:
       0.167  0.167  0.167
     eigenvectors (columns):
       1.000  0.000  0.000
       0.000  1.000  0.000
       0.000  0.000  1.000
     occupation matrix ns (before diag.):
       0.167  0.000  0.000
       0.000  0.167  0.000
       0.000  0.000  0.167
     ------------------------ ATOM   76 ------------------------
     Tr[ns( 76)] =   1.00000
     eigenvalues:
       0.167  0.167  0.167
     eigenvectors (columns):
       1.000  0.000  0.000
       0.000  1.000  0.000
       0.000  0.000  1.000
     occupation matrix ns (before diag.):
       0.167  0.000  0.000
       0.000  0.167  0.000
       0.000  0.000  0.167
     ------------------------ ATOM   77 ------------------------
     Tr[ns( 77)] =   3.00000
     eigenvalues:
       0.500  0.500  0.500
     eigenvectors (columns):
       1.000  0.000  0.000
       0.000  1.000  0.000
       0.000  0.000  1.000
     occupation matrix ns (before diag.):
       0.500  0.000  0.000
       0.000  0.500  0.000
       0.000  0.000  0.500
     ------------------------ ATOM   78 ------------------------
     Tr[ns( 78)] =   3.00000
     eigenvalues:
       0.500  0.500  0.500
     eigenvectors (columns):
       1.000  0.000  0.000
       0.000  1.000  0.000
       0.000  0.000  1.000
     occupation matrix ns (before diag.):
       0.500  0.000  0.000
       0.000  0.500  0.000
       0.000  0.000  0.500
     ------------------------ ATOM   79 ------------------------
     Tr[ns( 79)] =   3.00000
     eigenvalues:
       0.500  0.500  0.500
     eigenvectors (columns):
       1.000  0.000  0.000
       0.000  1.000  0.000
       0.000  0.000  1.000
     occupation matrix ns (before diag.):
       0.500  0.000  0.000
       0.000  0.500  0.000
       0.000  0.000  0.500
     ------------------------ ATOM   80 ------------------------
     Tr[ns( 80)] =   3.00000
     eigenvalues:
       0.500  0.500  0.500
     eigenvectors (columns):
       1.000  0.000  0.000
       0.000  1.000  0.000
       0.000  0.000  1.000
     occupation matrix ns (before diag.):
       0.500  0.000  0.000
       0.000  0.500  0.000
       0.000  0.000  0.500
     ------------------------ ATOM   81 ------------------------
     Tr[ns( 81)] =   1.00000
     eigenvalues:
       0.167  0.167  0.167
     eigenvectors (columns):
       1.000  0.000  0.000
       0.000  1.000  0.000
       0.000  0.000  1.000
     occupation matrix ns (before diag.):
       0.167  0.000  0.000
       0.000  0.167  0.000
       0.000  0.000  0.167
     ------------------------ ATOM   82 ------------------------
     Tr[ns( 82)] =   1.00000
     eigenvalues:
       0.167  0.167  0.167
     eigenvectors (columns):
       1.000  0.000  0.000
       0.000  1.000  0.000
       0.000  0.000  1.000
     occupation matrix ns (before diag.):
       0.167  0.000  0.000
       0.000  0.167  0.000
       0.000  0.000  0.167
     ------------------------ ATOM   83 ------------------------
     Tr[ns( 83)] =   1.00000
     eigenvalues:
       0.167  0.167  0.167
     eigenvectors (columns):
       1.000  0.000  0.000
       0.000  1.000  0.000
       0.000  0.000  1.000
     occupation matrix ns (before diag.):
       0.167  0.000  0.000
       0.000  0.167  0.000
       0.000  0.000  0.167
     ------------------------ ATOM   84 ------------------------
     Tr[ns( 84)] =   1.00000
     eigenvalues:
       0.167  0.167  0.167
     eigenvectors (columns):
       1.000  0.000  0.000
       0.000  1.000  0.000
       0.000  0.000  1.000
     occupation matrix ns (before diag.):
       0.167  0.000  0.000
       0.000  0.167  0.000
       0.000  0.000  0.167
     ------------------------ ATOM   85 ------------------------
     Tr[ns( 85)] =   3.00000
     eigenvalues:
       0.500  0.500  0.500
     eigenvectors (columns):
       1.000  0.000  0.000
       0.000  1.000  0.000
       0.000  0.000  1.000
     occupation matrix ns (before diag.):
       0.500  0.000  0.000
       0.000  0.500  0.000
       0.000  0.000  0.500
     ------------------------ ATOM   86 ------------------------
     Tr[ns( 86)] =   3.00000
     eigenvalues:
       0.500  0.500  0.500
     eigenvectors (columns):
       1.000  0.000  0.000
       0.000  1.000  0.000
       0.000  0.000  1.000
     occupation matrix ns (before diag.):
       0.500  0.000  0.000
       0.000  0.500  0.000
       0.000  0.000  0.500
     ------------------------ ATOM   87 ------------------------
     Tr[ns( 87)] =   3.00000
     eigenvalues:
       0.500  0.500  0.500
     eigenvectors (columns):
       1.000  0.000  0.000
       0.000  1.000  0.000
       0.000  0.000  1.000
     occupation matrix ns (before diag.):
       0.500  0.000  0.000
       0.000  0.500  0.000
       0.000  0.000  0.500
     ------------------------ ATOM   88 ------------------------
     Tr[ns( 88)] =   3.00000
     eigenvalues:
       0.500  0.500  0.500
     eigenvectors (columns):
       1.000  0.000  0.000
       0.000  1.000  0.000
       0.000  0.000  1.000
     occupation matrix ns (before diag.):
       0.500  0.000  0.000
       0.000  0.500  0.000
       0.000  0.000  0.500
     ------------------------ ATOM   89 ------------------------
     Tr[ns( 89)] =   1.00000
     eigenvalues:
       0.167  0.167  0.167
     eigenvectors (columns):
       1.000  0.000  0.000
       0.000  1.000  0.000
       0.000  0.000  1.000
     occupation matrix ns (before diag.):
       0.167  0.000  0.000
       0.000  0.167  0.000
       0.000  0.000  0.167
     ------------------------ ATOM   90 ------------------------
     Tr[ns( 90)] =   1.00000
     eigenvalues:
       0.167  0.167  0.167
     eigenvectors (columns):
       1.000  0.000  0.000
       0.000  1.000  0.000
       0.000  0.000  1.000
     occupation matrix ns (before diag.):
       0.167  0.000  0.000
       0.000  0.167  0.000
       0.000  0.000  0.167
     ------------------------ ATOM   91 ------------------------
     Tr[ns( 91)] =   1.00000
     eigenvalues:
       0.167  0.167  0.167
     eigenvectors (columns):
       1.000  0.000  0.000
       0.000  1.000  0.000
       0.000  0.000  1.000
     occupation matrix ns (before diag.):
       0.167  0.000  0.000
       0.000  0.167  0.000
       0.000  0.000  0.167
     ------------------------ ATOM   92 ------------------------
     Tr[ns( 92)] =   1.00000
     eigenvalues:
       0.167  0.167  0.167
     eigenvectors (columns):
       1.000  0.000  0.000
       0.000  1.000  0.000
       0.000  0.000  1.000
     occupation matrix ns (before diag.):
       0.167  0.000  0.000
       0.000  0.167  0.000
       0.000  0.000  0.167
     ------------------------ ATOM   93 ------------------------
     Tr[ns( 93)] =   3.00000
     eigenvalues:
       0.500  0.500  0.500
     eigenvectors (columns):
       1.000  0.000  0.000
       0.000  1.000  0.000
       0.000  0.000  1.000
     occupation matrix ns (before diag.):
       0.500  0.000  0.000
       0.000  0.500  0.000
       0.000  0.000  0.500
     ------------------------ ATOM   94 ------------------------
     Tr[ns( 94)] =   3.00000
     eigenvalues:
       0.500  0.500  0.500
     eigenvectors (columns):
       1.000  0.000  0.000
       0.000  1.000  0.000
       0.000  0.000  1.000
     occupation matrix ns (before diag.):
       0.500  0.000  0.000
       0.000  0.500  0.000
       0.000  0.000  0.500
     ------------------------ ATOM   95 ------------------------
     Tr[ns( 95)] =   3.00000
     eigenvalues:
       0.500  0.500  0.500
     eigenvectors (columns):
       1.000  0.000  0.000
       0.000  1.000  0.000
       0.000  0.000  1.000
     occupation matrix ns (before diag.):
       0.500  0.000  0.000
       0.000  0.500  0.000
       0.000  0.000  0.500
     ------------------------ ATOM   96 ------------------------
     Tr[ns( 96)] =   3.00000
     eigenvalues:
       0.500  0.500  0.500
     eigenvectors (columns):
       1.000  0.000  0.000
       0.000  1.000  0.000
       0.000  0.000  1.000
     occupation matrix ns (before diag.):
       0.500  0.000  0.000
       0.000  0.500  0.000
       0.000  0.000  0.500
     ------------------------ ATOM   97 ------------------------
     Tr[ns( 97)] =   1.00000
     eigenvalues:
       0.167  0.167  0.167
     eigenvectors (columns):
       1.000  0.000  0.000
       0.000  1.000  0.000
       0.000  0.000  1.000
     occupation matrix ns (before diag.):
       0.167  0.000  0.000
       0.000  0.167  0.000
       0.000  0.000  0.167
     ------------------------ ATOM   98 ------------------------
     Tr[ns( 98)] =   1.00000
     eigenvalues:
       0.167  0.167  0.167
     eigenvectors (columns):
       1.000  0.000  0.000
       0.000  1.000  0.000
       0.000  0.000  1.000
     occupation matrix ns (before diag.):
       0.167  0.000  0.000
       0.000  0.167  0.000
       0.000  0.000  0.167
     ------------------------ ATOM   99 ------------------------
     Tr[ns( 99)] =   1.00000
     eigenvalues:
       0.167  0.167  0.167
     eigenvectors (columns):
       1.000  0.000  0.000
       0.000  1.000  0.000
       0.000  0.000  1.000
     occupation matrix ns (before diag.):
       0.167  0.000  0.000
       0.000  0.167  0.000
       0.000  0.000  0.167
     ------------------------ ATOM  100 ------------------------
     Tr[ns(100)] =   1.00000
     eigenvalues:
       0.167  0.167  0.167
     eigenvectors (columns):
       1.000  0.000  0.000
       0.000  1.000  0.000
       0.000  0.000  1.000
     occupation matrix ns (before diag.):
       0.167  0.000  0.000
       0.000  0.167  0.000
       0.000  0.000  0.167
     ------------------------ ATOM  101 ------------------------
     Tr[ns(101)] =   3.00000
     eigenvalues:
       0.500  0.500  0.500
     eigenvectors (columns):
       1.000  0.000  0.000
       0.000  1.000  0.000
       0.000  0.000  1.000
     occupation matrix ns (before diag.):
       0.500  0.000  0.000
       0.000  0.500  0.000
       0.000  0.000  0.500
     ------------------------ ATOM  102 ------------------------
     Tr[ns(102)] =   3.00000
     eigenvalues:
       0.500  0.500  0.500
     eigenvectors (columns):
       1.000  0.000  0.000
       0.000  1.000  0.000
       0.000  0.000  1.000
     occupation matrix ns (before diag.):
       0.500  0.000  0.000
       0.000  0.500  0.000
       0.000  0.000  0.500
     ------------------------ ATOM  103 ------------------------
     Tr[ns(103)] =   3.00000
     eigenvalues:
       0.500  0.500  0.500
     eigenvectors (columns):
       1.000  0.000  0.000
       0.000  1.000  0.000
       0.000  0.000  1.000
     occupation matrix ns (before diag.):
       0.500  0.000  0.000
       0.000  0.500  0.000
       0.000  0.000  0.500
     ------------------------ ATOM  104 ------------------------
     Tr[ns(104)] =   3.00000
     eigenvalues:
       0.500  0.500  0.500
     eigenvectors (columns):
       1.000  0.000  0.000
       0.000  1.000  0.000
       0.000  0.000  1.000
     occupation matrix ns (before diag.):
       0.500  0.000  0.000
       0.000  0.500  0.000
       0.000  0.000  0.500
     ------------------------ ATOM  105 ------------------------
     Tr[ns(105)] =   1.00000
     eigenvalues:
       0.167  0.167  0.167
     eigenvectors (columns):
       1.000  0.000  0.000
       0.000  1.000  0.000
       0.000  0.000  1.000
     occupation matrix ns (before diag.):
       0.167  0.000  0.000
       0.000  0.167  0.000
       0.000  0.000  0.167
     ------------------------ ATOM  106 ------------------------
     Tr[ns(106)] =   1.00000
     eigenvalues:
       0.167  0.167  0.167
     eigenvectors (columns):
       1.000  0.000  0.000
       0.000  1.000  0.000
       0.000  0.000  1.000
     occupation matrix ns (before diag.):
       0.167  0.000  0.000
       0.000  0.167  0.000
       0.000  0.000  0.167
     ------------------------ ATOM  107 ------------------------
     Tr[ns(107)] =   1.00000
     eigenvalues:
       0.167  0.167  0.167
     eigenvectors (columns):
       1.000  0.000  0.000
       0.000  1.000  0.000
       0.000  0.000  1.000
     occupation matrix ns (before diag.):
       0.167  0.000  0.000
       0.000  0.167  0.000
       0.000  0.000  0.167
     ------------------------ ATOM  108 ------------------------
     Tr[ns(108)] =   1.00000
     eigenvalues:
       0.167  0.167  0.167
     eigenvectors (columns):
       1.000  0.000  0.000
       0.000  1.000  0.000
       0.000  0.000  1.000
     occupation matrix ns (before diag.):
       0.167  0.000  0.000
       0.000  0.167  0.000
       0.000  0.000  0.167
     ------------------------ ATOM  109 ------------------------
     Tr[ns(109)] =   3.00000
     eigenvalues:
       0.500  0.500  0.500
     eigenvectors (columns):
       1.000  0.000  0.000
       0.000  1.000  0.000
       0.000  0.000  1.000
     occupation matrix ns (before diag.):
       0.500  0.000  0.000
       0.000  0.500  0.000
       0.000  0.000  0.500
     ------------------------ ATOM  110 ------------------------
     Tr[ns(110)] =   3.00000
     eigenvalues:
       0.500  0.500  0.500
     eigenvectors (columns):
       1.000  0.000  0.000
       0.000  1.000  0.000
       0.000  0.000  1.000
     occupation matrix ns (before diag.):
       0.500  0.000  0.000
       0.000  0.500  0.000
       0.000  0.000  0.500
     ------------------------ ATOM  111 ------------------------
     Tr[ns(111)] =   3.00000
     eigenvalues:
       0.500  0.500  0.500
     eigenvectors (columns):
       1.000  0.000  0.000
       0.000  1.000  0.000
       0.000  0.000  1.000
     occupation matrix ns (before diag.):
       0.500  0.000  0.000
       0.000  0.500  0.000
       0.000  0.000  0.500
     ------------------------ ATOM  112 ------------------------
     Tr[ns(112)] =   3.00000
     eigenvalues:
       0.500  0.500  0.500
     eigenvectors (columns):
       1.000  0.000  0.000
       0.000  1.000  0.000
       0.000  0.000  1.000
     occupation matrix ns (before diag.):
       0.500  0.000  0.000
       0.000  0.500  0.000
       0.000  0.000  0.500
     ------------------------ ATOM  113 ------------------------
     Tr[ns(113)] =   1.00000
     eigenvalues:
       0.167  0.167  0.167
     eigenvectors (columns):
       1.000  0.000  0.000
       0.000  1.000  0.000
       0.000  0.000  1.000
     occupation matrix ns (before diag.):
       0.167  0.000  0.000
       0.000  0.167  0.000
       0.000  0.000  0.167
     ------------------------ ATOM  114 ------------------------
     Tr[ns(114)] =   1.00000
     eigenvalues:
       0.167  0.167  0.167
     eigenvectors (columns):
       1.000  0.000  0.000
       0.000  1.000  0.000
       0.000  0.000  1.000
     occupation matrix ns (before diag.):
       0.167  0.000  0.000
       0.000  0.167  0.000
       0.000  0.000  0.167
     ------------------------ ATOM  115 ------------------------
     Tr[ns(115)] =   1.00000
     eigenvalues:
       0.167  0.167  0.167
     eigenvectors (columns):
       1.000  0.000  0.000
       0.000  1.000  0.000
       0.000  0.000  1.000
     occupation matrix ns (before diag.):
       0.167  0.000  0.000
       0.000  0.167  0.000
       0.000  0.000  0.167
     ------------------------ ATOM  116 ------------------------
     Tr[ns(116)] =   1.00000
     eigenvalues:
       0.167  0.167  0.167
     eigenvectors (columns):
       1.000  0.000  0.000
       0.000  1.000  0.000
       0.000  0.000  1.000
     occupation matrix ns (before diag.):
       0.167  0.000  0.000
       0.000  0.167  0.000
       0.000  0.000  0.167
     ------------------------ ATOM  117 ------------------------
     Tr[ns(117)] =   3.00000
     eigenvalues:
       0.500  0.500  0.500
     eigenvectors (columns):
       1.000  0.000  0.000
       0.000  1.000  0.000
       0.000  0.000  1.000
     occupation matrix ns (before diag.):
       0.500  0.000  0.000
       0.000  0.500  0.000
       0.000  0.000  0.500
     ------------------------ ATOM  118 ------------------------
     Tr[ns(118)] =   3.00000
     eigenvalues:
       0.500  0.500  0.500
     eigenvectors (columns):
       1.000  0.000  0.000
       0.000  1.000  0.000
       0.000  0.000  1.000
     occupation matrix ns (before diag.):
       0.500  0.000  0.000
       0.000  0.500  0.000
       0.000  0.000  0.500
     ------------------------ ATOM  119 ------------------------
     Tr[ns(119)] =   3.00000
     eigenvalues:
       0.500  0.500  0.500
     eigenvectors (columns):
       1.000  0.000  0.000
       0.000  1.000  0.000
       0.000  0.000  1.000
     occupation matrix ns (before diag.):
       0.500  0.000  0.000
       0.000  0.500  0.000
       0.000  0.000  0.500
     ------------------------ ATOM  120 ------------------------
     Tr[ns(120)] =   3.00000
     eigenvalues:
       0.500  0.500  0.500
     eigenvectors (columns):
       1.000  0.000  0.000
       0.000  1.000  0.000
       0.000  0.000  1.000
     occupation matrix ns (before diag.):
       0.500  0.000  0.000
       0.000  0.500  0.000
       0.000  0.000  0.500
     ------------------------ ATOM  121 ------------------------
     Tr[ns(121)] =   1.00000
     eigenvalues:
       0.167  0.167  0.167
     eigenvectors (columns):
       1.000  0.000  0.000
       0.000  1.000  0.000
       0.000  0.000  1.000
     occupation matrix ns (before diag.):
       0.167  0.000  0.000
       0.000  0.167  0.000
       0.000  0.000  0.167
     ------------------------ ATOM  122 ------------------------
     Tr[ns(122)] =   1.00000
     eigenvalues:
       0.167  0.167  0.167
     eigenvectors (columns):
       1.000  0.000  0.000
       0.000  1.000  0.000
       0.000  0.000  1.000
     occupation matrix ns (before diag.):
       0.167  0.000  0.000
       0.000  0.167  0.000
       0.000  0.000  0.167
     ------------------------ ATOM  123 ------------------------
     Tr[ns(123)] =   1.00000
     eigenvalues:
       0.167  0.167  0.167
     eigenvectors (columns):
       1.000  0.000  0.000
       0.000  1.000  0.000
       0.000  0.000  1.000
     occupation matrix ns (before diag.):
       0.167  0.000  0.000
       0.000  0.167  0.000
       0.000  0.000  0.167
     ------------------------ ATOM  124 ------------------------
     Tr[ns(124)] =   1.00000
     eigenvalues:
       0.167  0.167  0.167
     eigenvectors (columns):
       1.000  0.000  0.000
       0.000  1.000  0.000
       0.000  0.000  1.000
     occupation matrix ns (before diag.):
       0.167  0.000  0.000
       0.000  0.167  0.000
       0.000  0.000  0.167
     ------------------------ ATOM  125 ------------------------
     Tr[ns(125)] =   3.00000
     eigenvalues:
       0.500  0.500  0.500
     eigenvectors (columns):
       1.000  0.000  0.000
       0.000  1.000  0.000
       0.000  0.000  1.000
     occupation matrix ns (before diag.):
       0.500  0.000  0.000
       0.000  0.500  0.000
       0.000  0.000  0.500
     ------------------------ ATOM  126 ------------------------
     Tr[ns(126)] =   3.00000
     eigenvalues:
       0.500  0.500  0.500
     eigenvectors (columns):
       1.000  0.000  0.000
       0.000  1.000  0.000
       0.000  0.000  1.000
     occupation matrix ns (before diag.):
       0.500  0.000  0.000
       0.000  0.500  0.000
       0.000  0.000  0.500
     ------------------------ ATOM  127 ------------------------
     Tr[ns(127)] =   3.00000
     eigenvalues:
       0.500  0.500  0.500
     eigenvectors (columns):
       1.000  0.000  0.000
       0.000  1.000  0.000
       0.000  0.000  1.000
     occupation matrix ns (before diag.):
       0.500  0.000  0.000
       0.000  0.500  0.000
       0.000  0.000  0.500
     ------------------------ ATOM  128 ------------------------
     Tr[ns(128)] =   3.00000
     eigenvalues:
       0.500  0.500  0.500
     eigenvectors (columns):
       1.000  0.000  0.000
       0.000  1.000  0.000
       0.000  0.000  1.000
     occupation matrix ns (before diag.):
       0.500  0.000  0.000
       0.000  0.500  0.000
       0.000  0.000  0.500
     ------------------------ ATOM  129 ------------------------
     Tr[ns(129)] =   1.00000
     eigenvalues:
       0.167  0.167  0.167
     eigenvectors (columns):
       1.000  0.000  0.000
       0.000  1.000  0.000
       0.000  0.000  1.000
     occupation matrix ns (before diag.):
       0.167  0.000  0.000
       0.000  0.167  0.000
       0.000  0.000  0.167
     ------------------------ ATOM  130 ------------------------
     Tr[ns(130)] =   1.00000
     eigenvalues:
       0.167  0.167  0.167
     eigenvectors (columns):
       1.000  0.000  0.000
       0.000  1.000  0.000
       0.000  0.000  1.000
     occupation matrix ns (before diag.):
       0.167  0.000  0.000
       0.000  0.167  0.000
       0.000  0.000  0.167
     ------------------------ ATOM  131 ------------------------
     Tr[ns(131)] =   1.00000
     eigenvalues:
       0.167  0.167  0.167
     eigenvectors (columns):
       1.000  0.000  0.000
       0.000  1.000  0.000
       0.000  0.000  1.000
     occupation matrix ns (before diag.):
       0.167  0.000  0.000
       0.000  0.167  0.000
       0.000  0.000  0.167
     ------------------------ ATOM  132 ------------------------
     Tr[ns(132)] =   1.00000
     eigenvalues:
       0.167  0.167  0.167
     eigenvectors (columns):
       1.000  0.000  0.000
       0.000  1.000  0.000
       0.000  0.000  1.000
     occupation matrix ns (before diag.):
       0.167  0.000  0.000
       0.000  0.167  0.000
       0.000  0.000  0.167
     ------------------------ ATOM  133 ------------------------
     Tr[ns(133)] =   3.00000
     eigenvalues:
       0.500  0.500  0.500
     eigenvectors (columns):
       1.000  0.000  0.000
       0.000  1.000  0.000
       0.000  0.000  1.000
     occupation matrix ns (before diag.):
       0.500  0.000  0.000
       0.000  0.500  0.000
       0.000  0.000  0.500
     ------------------------ ATOM  134 ------------------------
     Tr[ns(134)] =   3.00000
     eigenvalues:
       0.500  0.500  0.500
     eigenvectors (columns):
       1.000  0.000  0.000
       0.000  1.000  0.000
       0.000  0.000  1.000
     occupation matrix ns (before diag.):
       0.500  0.000  0.000
       0.000  0.500  0.000
       0.000  0.000  0.500
     ------------------------ ATOM  135 ------------------------
     Tr[ns(135)] =   3.00000
     eigenvalues:
       0.500  0.500  0.500
     eigenvectors (columns):
       1.000  0.000  0.000
       0.000  1.000  0.000
       0.000  0.000  1.000
     occupation matrix ns (before diag.):
       0.500  0.000  0.000
       0.000  0.500  0.000
       0.000  0.000  0.500
     ------------------------ ATOM  136 ------------------------
     Tr[ns(136)] =   3.00000
     eigenvalues:
       0.500  0.500  0.500
     eigenvectors (columns):
       1.000  0.000  0.000
       0.000  1.000  0.000
       0.000  0.000  1.000
     occupation matrix ns (before diag.):
       0.500  0.000  0.000
       0.000  0.500  0.000
       0.000  0.000  0.500
     ------------------------ ATOM  137 ------------------------
     Tr[ns(137)] =   1.00000
     eigenvalues:
       0.167  0.167  0.167
     eigenvectors (columns):
       1.000  0.000  0.000
       0.000  1.000  0.000
       0.000  0.000  1.000
     occupation matrix ns (before diag.):
       0.167  0.000  0.000
       0.000  0.167  0.000
       0.000  0.000  0.167
     ------------------------ ATOM  138 ------------------------
     Tr[ns(138)] =   1.00000
     eigenvalues:
       0.167  0.167  0.167
     eigenvectors (columns):
       1.000  0.000  0.000
       0.000  1.000  0.000
       0.000  0.000  1.000
     occupation matrix ns (before diag.):
       0.167  0.000  0.000
       0.000  0.167  0.000
       0.000  0.000  0.167
     ------------------------ ATOM  139 ------------------------
     Tr[ns(139)] =   1.00000
     eigenvalues:
       0.167  0.167  0.167
     eigenvectors (columns):
       1.000  0.000  0.000
       0.000  1.000  0.000
       0.000  0.000  1.000
     occupation matrix ns (before diag.):
       0.167  0.000  0.000
       0.000  0.167  0.000
       0.000  0.000  0.167
     ------------------------ ATOM  140 ------------------------
     Tr[ns(140)] =   1.00000
     eigenvalues:
       0.167  0.167  0.167
     eigenvectors (columns):
       1.000  0.000  0.000
       0.000  1.000  0.000
       0.000  0.000  1.000
     occupation matrix ns (before diag.):
       0.167  0.000  0.000
       0.000  0.167  0.000
       0.000  0.000  0.167
     ------------------------ ATOM  141 ------------------------
     Tr[ns(141)] =   3.00000
     eigenvalues:
       0.500  0.500  0.500
     eigenvectors (columns):
       1.000  0.000  0.000
       0.000  1.000  0.000
       0.000  0.000  1.000
     occupation matrix ns (before diag.):
       0.500  0.000  0.000
       0.000  0.500  0.000
       0.000  0.000  0.500
     ------------------------ ATOM  142 ------------------------
     Tr[ns(142)] =   3.00000
     eigenvalues:
       0.500  0.500  0.500
     eigenvectors (columns):
       1.000  0.000  0.000
       0.000  1.000  0.000
       0.000  0.000  1.000
     occupation matrix ns (before diag.):
       0.500  0.000  0.000
       0.000  0.500  0.000
       0.000  0.000  0.500
     ------------------------ ATOM  143 ------------------------
     Tr[ns(143)] =   3.00000
     eigenvalues:
       0.500  0.500  0.500
     eigenvectors (columns):
       1.000  0.000  0.000
       0.000  1.000  0.000
       0.000  0.000  1.000
     occupation matrix ns (before diag.):
       0.500  0.000  0.000
       0.000  0.500  0.000
       0.000  0.000  0.500
     ------------------------ ATOM  144 ------------------------
     Tr[ns(144)] =   3.00000
     eigenvalues:
       0.500  0.500  0.500
     eigenvectors (columns):
       1.000  0.000  0.000
       0.000  1.000  0.000
       0.000  0.000  1.000
     occupation matrix ns (before diag.):
       0.500  0.000  0.000
       0.000  0.500  0.000
       0.000  0.000  0.500
     ------------------------ ATOM  145 ------------------------
     Tr[ns(145)] =   1.00000
     eigenvalues:
       0.167  0.167  0.167
     eigenvectors (columns):
       1.000  0.000  0.000
       0.000  1.000  0.000
       0.000  0.000  1.000
     occupation matrix ns (before diag.):
       0.167  0.000  0.000
       0.000  0.167  0.000
       0.000  0.000  0.167
     ------------------------ ATOM  146 ------------------------
     Tr[ns(146)] =   1.00000
     eigenvalues:
       0.167  0.167  0.167
     eigenvectors (columns):
       1.000  0.000  0.000
       0.000  1.000  0.000
       0.000  0.000  1.000
     occupation matrix ns (before diag.):
       0.167  0.000  0.000
       0.000  0.167  0.000
       0.000  0.000  0.167
     ------------------------ ATOM  147 ------------------------
     Tr[ns(147)] =   1.00000
     eigenvalues:
       0.167  0.167  0.167
     eigenvectors (columns):
       1.000  0.000  0.000
       0.000  1.000  0.000
       0.000  0.000  1.000
     occupation matrix ns (before diag.):
       0.167  0.000  0.000
       0.000  0.167  0.000
       0.000  0.000  0.167
     ------------------------ ATOM  148 ------------------------
     Tr[ns(148)] =   1.00000
     eigenvalues:
       0.167  0.167  0.167
     eigenvectors (columns):
       1.000  0.000  0.000
       0.000  1.000  0.000
       0.000  0.000  1.000
     occupation matrix ns (before diag.):
       0.167  0.000  0.000
       0.000  0.167  0.000
       0.000  0.000  0.167
     ------------------------ ATOM  149 ------------------------
     Tr[ns(149)] =   3.00000
     eigenvalues:
       0.500  0.500  0.500
     eigenvectors (columns):
       1.000  0.000  0.000
       0.000  1.000  0.000
       0.000  0.000  1.000
     occupation matrix ns (before diag.):
       0.500  0.000  0.000
       0.000  0.500  0.000
       0.000  0.000  0.500
     ------------------------ ATOM  150 ------------------------
     Tr[ns(150)] =   3.00000
     eigenvalues:
       0.500  0.500  0.500
     eigenvectors (columns):
       1.000  0.000  0.000
       0.000  1.000  0.000
       0.000  0.000  1.000
     occupation matrix ns (before diag.):
       0.500  0.000  0.000
       0.000  0.500  0.000
       0.000  0.000  0.500
     ------------------------ ATOM  151 ------------------------
     Tr[ns(151)] =   3.00000
     eigenvalues:
       0.500  0.500  0.500
     eigenvectors (columns):
       1.000  0.000  0.000
       0.000  1.000  0.000
       0.000  0.000  1.000
     occupation matrix ns (before diag.):
       0.500  0.000  0.000
       0.000  0.500  0.000
       0.000  0.000  0.500
     ------------------------ ATOM  152 ------------------------
[...]
   -20.4149 -20.4148 -20.4147 -20.4144 -20.4143 -20.4141 -20.4139 -20.4139
   -20.4137 -20.4134 -20.4130 -20.4128 -20.4125 -20.4125 -20.4121 -20.4120
   -20.4116 -20.4116 -20.4114 -20.4112 -20.4110 -20.4106 -20.4104 -20.4103
   -20.4102 -20.4100 -20.4098 -20.4097 -20.4097 -20.4096 -20.4094 -20.4091
   -20.4089 -20.4086 -20.4085 -20.4084 -20.4083 -20.4082 -20.4079 -20.4075
   -20.4075 -20.4074 -20.4070 -20.4070 -20.4068 -20.4067 -20.4066 -20.4065
   -20.4065 -20.4064 -20.4063 -20.4057 -20.4056 -20.4055 -20.4055 -20.4053
   -20.4052 -20.4052 -20.4052 -20.4050 -20.4050 -20.4049 -20.4049 -20.4049
   -20.4047 -20.4047 -20.4045 -20.4045 -20.4043 -20.4043 -20.4041 -20.4039
   -20.4035 -20.4032 -20.4032 -20.4029 -20.4027 -20.4025 -20.4025 -20.4019
   -20.4019 -20.4019 -20.4018 -20.4011 -20.4010 -20.4010 -20.4010 -20.4005
   -20.4004 -20.3998 -20.3998 -20.3994 -20.3994 -20.3993 -20.3988 -20.3987
   -20.3985 -20.3982 -20.3980 -20.3980 -20.3979 -20.3978 -20.3973 -20.3968
   -20.3962 -20.3960 -20.3957 -20.3953 -20.3953 -20.3952 -20.3950 -20.3948
   -20.3948 -20.3946 -20.3944 -20.3942 -20.3940 -20.3939 -20.3937 -20.3931
   -20.3929 -20.3925 -20.3924 -20.3924 -20.3922 -20.3921 -20.3919 -20.3919
   -20.3918 -20.3918 -20.3916 -20.3914 -20.3913 -20.3906 -20.3906 -20.3900
   -20.3899 -20.3896 -20.3895 -20.3894 -20.3893 -20.3886 -20.3886 -20.3884
   -20.3883 -20.3882 -20.3879 -20.3876 -20.3870 -20.3870 -20.3869 -20.3869
   -20.3865 -20.3864 -20.3864 -20.3862 -20.3862 -20.3860 -20.3858 -20.3856
   -20.3856 -20.3853 -20.3847 -20.3846 -20.3844 -20.3842 -20.3839 -20.3830
   -20.3828 -20.3822 -20.3822 -20.3819 -20.3819 -20.3811 -20.3805 -20.3805
   -20.3797 -20.3787 -20.3781 -20.3780 -20.3778 -20.3770 -20.3763 -20.3761
   -20.3758 -20.3752 -20.3738 -20.3735 -20.3734 -20.3728 -20.3721 -20.3691
   -20.3688 -20.3683 -20.3681 -20.3676 -20.3672 -20.3659 -20.3637 -20.3633
   -20.3620 -20.3585 -20.3569 -20.3560  -7.3631  -7.3557  -7.3541  -7.3522
    -7.3498  -7.3456  -7.3440  -7.3439  -7.3427  -7.3412  -7.3411  -7.3409
    -7.3396  -7.3378  -7.3376  -7.3373  -7.3364  -7.3361  -7.3349  -7.3346
    -7.3339  -7.3336  -7.3325  -7.3320  -7.3308  -7.3302  -7.3289  -7.3282
    -7.3276  -7.3271  -7.3261  -7.3253  -7.3248  -7.3242  -7.3238  -7.3234
    -7.3226  -7.3223  -7.3216  -7.3200  -7.3189  -7.3183  -7.3175  -7.3168
    -7.3161  -7.3157  -7.3137  -7.3135  -7.3117  -7.3103  -7.3080  -7.3048
    -7.3019  -7.2998  -7.2982  -7.2939  -7.2925  -7.2907  -7.2898  -7.2872
    -7.2860  -7.2849  -7.2847  -7.2842  -7.2835  -7.2826  -7.2817  -7.2810
    -7.2808  -7.2801  -7.2794  -7.2792  -7.2788  -7.2781  -7.2776  -7.2773
    -7.2765  -7.2754  -7.2750  -7.2743  -7.2738  -7.2733  -7.2731  -7.2721
    -7.2716  -7.2713  -7.2709  -7.2703  -7.2694  -7.2686  -7.2681  -7.2674
    -7.2670  -7.2668  -7.2666  -7.2659  -7.2656  -7.2650  -7.2644  -7.2636
    -7.2632  -7.2629  -7.2623  -7.2619  -7.2612  -7.2605  -7.2603  -7.2597
    -7.2594  -7.2582  -7.2581  -7.2577  -7.2574  -7.2564  -7.2563  -7.2560
    -7.2558  -7.2552  -7.2548  -7.2542  -7.2535  -7.2531  -7.2527  -7.2518
    -7.2512  -7.2505  -7.2503  -7.2499  -7.2494  -7.2481  -7.2479  -7.2478
    -7.2472  -7.2470  -7.2461  -7.2459  -7.2454  -7.2447  -7.2444  -7.2440
    -7.2436  -7.2426  -7.2424  -7.2418  -7.2417  -7.2409  -7.2404  -7.2403
    -7.2393  -7.2392  -7.2388  -7.2385  -7.2377  -7.2374  -7.2369  -7.2364
    -7.2360  -7.2359  -7.2354  -7.2349  -7.2345  -7.2339  -7.2335  -7.2333
    -7.2326  -7.2324  -7.2320  -7.2318  -7.2317  -7.2311  -7.2309  -7.2302
    -7.2299  -7.2292  -7.2291  -7.2289  -7.2282  -7.2279  -7.2279  -7.2271
    -7.2269  -7.2267  -7.2260  -7.2258  -7.2252  -7.2249  -7.2244  -7.2240
    -7.2235  -7.2232  -7.2231  -7.2223  -7.2221  -7.2215  -7.2212  -7.2210
    -7.2207  -7.2203  -7.2202  -7.2198  -7.2193  -7.2187  -7.2186  -7.2184
    -7.2179  -7.2174  -7.2174  -7.2171  -7.2164  -7.2159  -7.2158  -7.2155
    -7.2151  -7.2147  -7.2144  -7.2138  -7.2137  -7.2132  -7.2129  -7.2126
    -7.2123  -7.2118  -7.2116  -7.2111  -7.2107  -7.2103  -7.2098  -7.2092
    -7.2090  -7.2087  -7.2084  -7.2080  -7.2072  -7.2070  -7.2065  -7.2063
    -7.2063  -7.2059  -7.2053  -7.2049  -7.2045  -7.2039  -7.2037  -7.2036
    -7.2032  -7.2030  -7.2026  -7.2020  -7.2019  -7.2012  -7.2010  -7.2005
    -7.2000  -7.1999  -7.1992  -7.1989  -7.1986  -7.1980  -7.1979  -7.1973
    -7.1969  -7.1967  -7.1963  -7.1961  -7.1959  -7.1955  -7.1948  -7.1948
    -7.1945  -7.1941  -7.1938  -7.1934  -7.1930  -7.1927  -7.1923  -7.1917
    -7.1915  -7.1909  -7.1909  -7.1904  -7.1899  -7.1895  -7.1890  -7.1888
    -7.1885  -7.1880  -7.1876  -7.1873  -7.1869  -7.1863  -7.1859  -7.1855
    -7.1851  -7.1847  -7.1845  -7.1840  -7.1837  -7.1834  -7.1831  -7.1827
    -7.1822  -7.1820  -7.1814  -7.1809  -7.1808  -7.1805  -7.1803  -7.1799
    -7.1798  -7.1794  -7.1791  -7.1788  -7.1786  -7.1777  -7.1776  -7.1772
    -7.1769  -7.1767  -7.1762  -7.1758  -7.1757  -7.1752  -7.1751  -7.1748
    -7.1745  -7.1742  -7.1738  -7.1736  -7.1728  -7.1726  -7.1720  -7.1719
    -7.1715  -7.1715  -7.1711  -7.1710  -7.1703  -7.1700  -7.1697  -7.1695
    -7.1694  -7.1686  -7.1685  -7.1678  -7.1674  -7.1673  -7.1671  -7.1668
    -7.1665  -7.1663  -7.1660  -7.1654  -7.1652  -7.1648  -7.1643  -7.1642
    -7.1639  -7.1637  -7.1632  -7.1628  -7.1623  -7.1622  -7.1616  -7.1613
    -7.1610  -7.1607  -7.1606  -7.1603  -7.1599  -7.1596  -7.1594  -7.1591
    -7.1590  -7.1585  -7.1580  -7.1572  -7.1569  -7.1569  -7.1566  -7.1564
    -7.1562  -7.1556  -7.1554  -7.1550  -7.1548  -7.1544  -7.1542  -7.1540
    -7.1536  -7.1530  -7.1527  -7.1525  -7.1522  -7.1519  -7.1516  -7.1510
    -7.1506  -7.1504  -7.1502  -7.1499  -7.1497  -7.1493  -7.1490  -7.1486
    -7.1485  -7.1483  -7.1481  -7.1475  -7.1471  -7.1470  -7.1465  -7.1464
    -7.1459  -7.1456  -7.1455  -7.1452  -7.1447  -7.1445  -7.1444  -7.1440
    -7.1435  -7.1432  -7.1428  -7.1424  -7.1423  -7.1417  -7.1411  -7.1407
    -7.1405  -7.1400  -7.1395  -7.1393  -7.1393  -7.1386  -7.1383  -7.1378
    -7.1373  -7.1368  -7.1368  -7.1365  -7.1364  -7.1358  -7.1355  -7.1350
    -7.1349  -7.1345  -7.1341  -7.1329  -7.1323  -7.1316  -7.1312  -7.1309
    -7.1302  -7.1298  -7.1293  -7.1289  -7.1282  -7.1281  -7.1272  -7.1269
    -7.1265  -7.1261  -7.1258  -7.1249  -7.1246  -7.1242  -7.1238  -7.1237
    -7.1226  -7.1223  -7.1217  -7.1211  -7.1210  -7.1208  -7.1203  -7.1198
    -7.1193  -7.1183  -7.1177  -7.1172  -7.1166  -7.1157  -7.1156  -7.1152
    -7.1147  -7.1141  -7.1135  -7.1132  -7.1129  -7.1129  -7.1110  -7.1104
    -7.1104  -7.1103  -7.1093  -7.1090  -7.1088  -7.1081  -7.1069  -7.1061
    -7.1056  -7.1043  -7.1037  -7.1033  -7.1031  -7.1014  -7.1009  -7.1008
    -7.1007  -7.0990  -7.0981  -7.0964  -7.0957  -7.0955  -7.0947  -7.0944
    -7.0934  -7.0920  -7.0912  -7.0896  -7.0881  -7.0868  -7.0866  -7.0842
    -7.0828  -7.0815  -7.0812  -7.0807  -7.0786  -7.0780  -7.0775  -7.0774
    -7.0769  -7.0767  -7.0703  -7.0692  -7.0683  -7.0653  -7.0526  -7.0483
    -3.5753  -3.5715  -3.4703  -3.4133  -3.3792  -3.3370  -3.2951  -3.2541
    -3.2130  -3.1609  -3.1453  -3.1268  -3.1044  -3.0651  -3.0523  -3.0252
    -3.0059  -2.9736  -2.9384  -2.9030  -2.8858  -2.8441  -2.8265  -2.8066
    -2.7947  -2.7733  -2.7424  -2.7207  -2.6808  -2.6615  -2.6434  -2.6275
    -2.6229  -2.5795  -2.5702  -2.5630  -2.5309  -2.5008  -2.4882  -2.4602
    -2.4368  -2.4219  -2.4140  -2.4000  -2.3853  -2.3665  -2.3611  -2.3233
    -2.3144  -2.2763  -2.2738  -2.2441  -2.2335  -2.1917  -2.1548  -2.1444
    -2.0373  -1.9349  -1.8937  -1.8827  -1.8370  -1.8009  -1.7843  -1.7461
    -1.7333  -1.7184  -1.6638  -1.6502  -1.6303  -1.6190  -1.5603  -1.5473
    -1.5254  -1.5186  -1.4971  -1.4786  -1.4661  -1.4423  -1.4336  -1.3863
    -1.3602  -1.3421  -1.3057  -1.3001  -1.2620  -1.2327  -1.2071  -1.1871
    -1.1666  -1.1587  -1.1396  -1.1057  -1.0821  -1.0642  -1.0537  -1.0271
    -1.0198  -1.0013  -0.9838  -0.9733  -0.9507  -0.9417  -0.9090  -0.8976
    -0.8780  -0.8456  -0.8283  -0.7642   0.5027   0.5283   0.5590   0.5779
     0.7602   0.7668   0.7752   0.7799   0.7823   0.7938   0.7976   0.8025
     0.8127   0.8143   0.8189   0.8302   0.8347   0.8398   0.8456   0.8542
     0.8600   0.8655   0.8684   0.8728   0.8783   0.8907   0.8954   0.8967
     0.9053   0.9102   0.9161   0.9246   0.9291   0.9390   0.9457   0.9503
     0.9559   0.9597   0.9685   0.9797   0.9876   1.0021   1.0101   1.0163
     1.0194   1.0338   1.0356   1.0454   1.0515   1.0560   1.0599   1.0714
     1.0776   1.0859   1.0962   1.0998   1.1064   1.1115   1.1283   1.1387
     1.5949   1.6358   1.6403   1.6780   1.6879   1.7126   1.7392   1.7519
     1.7778   1.7957   1.8232   1.8514   1.8611   1.8825   1.9192   1.9307
     1.9467   1.9884   2.0007   2.0065   2.0134   2.0195   2.0360   2.0516
     2.0599   2.0797   2.0903   2.1052   2.7979   2.8615   2.9380   2.9580
     2.9655   2.9982   3.0014   3.0181   3.4079   3.4253   3.4372   3.4458
     3.4494   3.4524   3.4646   3.4912   3.4975   3.5020   3.5198   3.5464
     3.5509   3.5711   3.5955   3.6001   3.6595   3.6669   3.6839   3.6889
     3.6998   3.7047   3.7171   3.7233   3.7289   3.7431   3.7506   3.7571
     3.7595   3.7682   3.7813   3.7848   3.8331   3.8399   3.8514   3.8550
     3.8984   3.9081   3.9181   3.9310   3.9433   3.9500   3.9597   3.9654
     3.9733   3.9801   3.9896   3.9983   4.0039   4.0134   4.0318   4.0401
     4.0484   4.0555   4.0642   4.0857   4.2980   4.3193   4.3521   4.3598
     4.3830   4.3949   4.4068   4.4383   4.4584   4.4783   4.4818   4.4832
     4.4964   4.5069   4.5126   4.5301   4.5349   4.5480   4.5619   4.5640
     4.5781   4.5900   4.5937   4.5973   4.6068   4.6182   4.6278   4.6337
     4.6471   4.6529   4.6565   4.6749   4.6767   4.6991   4.7094   4.7237
     4.7472   4.7670   4.7917   4.7990   4.8233   4.8286   4.8400   4.8519
     4.8708   4.8721   4.8846   4.8920   4.8994   4.9119   4.9150   4.9244
     4.9309   4.9357   4.9550   4.9589   4.9801   4.9864   5.0057   5.0138
     5.0178   5.0280   5.0315   5.0334   5.0477   5.0590   5.0679   5.0764
     5.0896   5.0966   5.1044   5.1179   5.1228   5.1324   5.1502   5.1579
     5.1668   5.1835   5.1895   5.1990   5.2248   5.2257   5.2401   5.2536
     5.2585   5.2684   5.2835   5.2983   5.3034   5.3122   5.3259   5.3580
     5.3679   5.3878   5.3943   5.4070   5.4228   5.4388   5.4531   5.4608
     5.4743   5.4852   5.4957   5.5024   5.5133   5.5244   5.5258   5.5491
     5.5618   5.5835   5.5888   5.6077   5.6609   5.6920   5.7144   5.7165
     5.7305   5.7593   5.7693   5.8022   5.8041   5.8263   5.8327   5.8433
     5.8442   5.8598   5.8734   5.8779   5.8988   5.9198   5.9282   5.9338
     5.9511   5.9710   5.9799   5.9857   6.0018   6.0076   6.0270   6.0318
     6.0481   6.0685   6.0893   6.1034   6.1174   6.1300   6.1411   6.1596
     6.1748   6.1964   6.2143   6.2479   6.2517   6.2616   6.2824   6.2987
     6.3076   6.3213   6.3327   6.3476   6.3636   6.3840   6.4151   6.4186
     6.4400   6.4702   6.5510   6.5733   6.8785   6.9103   6.9746   7.0227
     8.4646   8.4932   8.5163   8.5505   8.6006   8.6070   8.6579   8.6640
     8.6772   8.7007   8.7120   8.8012   8.8763   8.9092   8.9380   8.9692
     8.9943   9.0276   9.0489   9.0904   9.1673   9.1945   9.2146   9.2263
     9.2443   9.2643   9.2737   9.2861   9.2965   9.3022   9.3274   9.3294
     9.3442   9.3531   9.3681   9.3749   9.3813   9.3849   9.4023   9.4082
     9.4209   9.4361   9.4407   9.4448   9.4563   9.4683   9.4784   9.4825
     9.4872   9.4894   9.4973   9.5147   9.5463   9.5581   9.5673   9.5731
     9.6059   9.6285   9.6408   9.6515   9.6659   9.6691   9.6740   9.6842
     9.6920   9.7020   9.7099   9.7123   9.7169   9.7254   9.7315   9.7342
     9.7433   9.7538   9.7599   9.7664   9.7702   9.7714   9.7824   9.7940
     9.8029   9.8090   9.8132   9.8239   9.8274   9.8397   9.8401   9.8566
     9.8647   9.8780   9.8795   9.8821   9.8924   9.8975   9.9033   9.9210
     9.9351   9.9446   9.9488   9.9591   9.9765   9.9806   9.9834  10.0038
    10.0224  10.0318  10.0429  10.0523  10.2798  10.2960  10.3212  10.3307
    10.3554  10.3835  10.3942  10.4031  10.4185  10.4341  10.4546  10.4721
    10.5613  10.5826  10.5963  10.6059  10.6318  10.6496  10.6546  10.6764
    10.6928  10.7092  10.7269  10.7329  10.7619  10.7730  10.7848  10.8033
    10.9080  10.9492  10.9749  10.9808  10.9945  11.0170  11.0280  11.0417
    11.0732  11.0827  11.0947  11.1129  11.1585  11.1742  11.1888  11.1958
    11.2500  11.2563  11.2704  11.2753  11.2835  11.3001  11.3064  11.3117
    11.3296  11.3333  11.3383  11.3540  11.3577  11.3699  11.3780  11.3894
    11.4011  11.4064  11.4078  11.4241  11.4314  11.4341  11.4379  11.4617
    11.4663  11.4765  11.4856  11.4906  11.4936  11.5034  11.5089  11.5170
    11.5257  11.5313  11.5409  11.5439  11.5628  11.5740  11.5763  11.5885
    11.5934  11.6027  11.6164  11.6188  11.6238  11.6372  11.6441  11.6526
    11.6622  11.6699  11.6779  11.6952  11.7072  11.7122  11.7608  11.7667
    11.7700  11.8039  11.8111  11.8294  11.8803  11.8979  11.9140  11.9240
    11.9347  11.9380  11.9424  11.9476  11.9525  11.9582  11.9688  11.9742
    11.9809  11.9904  12.0069  12.0141  12.0508  12.0538  12.0749  12.0839
    12.1025  12.1152  12.1160  12.1403  12.1456  12.1600  12.1617  12.1694
    12.1776  12.1914  12.1961  12.2052  12.2126  12.2219  12.2380  12.2517
    12.2699  12.2841  12.3011  12.3223  12.3278  12.3410  12.3510  12.3634
    12.3690  12.3907  12.3934  12.3986  12.4118  12.4222  12.4313  12.4426
    12.4466  12.4542  12.4643  12.4731  12.4898  12.5034  12.5138  12.5240
    12.5311  12.5435  12.5452  12.5616  12.5809  12.6048  12.6145  12.6241
    12.6301  12.6343  12.6518  12.6584  12.6843  12.6900  12.7013  12.7090
    12.7232  12.7376  12.7524  12.7777  12.7861  12.7939  12.8055  12.8145
    12.8162  12.8197  12.8351  12.8362  12.8515  12.8575  12.8718  12.8851
    12.8901  12.8981  12.9069  12.9111  12.9136  12.9280  12.9329  12.9407
    12.9445  12.9535  12.9581  12.9664  12.9757  12.9844  12.9951  12.9954
    13.0012  13.0101  13.0134  13.0270  13.0344  13.0434  13.0580  13.0697
    13.0766  13.0823  13.0903  13.0984  13.1045  13.1078  13.1144  13.1325
    13.1383  13.1402  13.1464  13.1515  13.1713  13.1724  13.1922  13.1977
    13.2237  13.2297  13.2812  13.3077  13.3243  13.3413  13.3466  13.3789
    13.6561  13.6694  13.6844  13.6916  13.7133  13.7197  13.7436  13.7516
    13.7655  13.7755  13.7837  13.8040  13.8203  13.8337  13.8424  13.8707
    13.8977  13.9028  13.9094  13.9264  13.9365  13.9528  13.9692  13.9818
    13.9873  13.9978  14.0051  14.0266  14.0388  14.0459  14.0593  14.0774
    14.1309  14.1796  14.1856  14.2240  14.2296  14.2454  14.2563  14.2694
    14.2767  14.2989  14.3105  14.3208  14.3320  14.3402  14.3528  14.3640
    14.3849  14.3885  14.4049  14.4129  14.4349  14.4425  14.4471  14.4536
    14.4821  14.4886  14.5003  14.5055  14.5328  14.5453  14.5549  14.5855
    14.6279  14.6444  14.6613  14.6800  14.6951  14.7064  14.7230  14.7296
    14.7314  14.7460  14.7630  14.7738  14.7784  14.7876  14.8098  14.8183
    14.8745  14.8939  14.9121  14.9394  14.9536  14.9715  15.0252  15.0731
    15.0784  15.0818  15.0879  15.1035  15.1286  15.1352  15.1388  15.1492
    15.1793  15.1842  15.1926  15.1986  15.2099  15.2290  15.2341  15.2449
    15.2504  15.2637  15.2727  15.2814  15.2933  15.3102  15.3130  15.3189
    15.3266  15.3288  15.3368  15.3513  15.3527  15.3586  15.3628  15.3692
    15.3748  15.3892  15.3935  15.4006  15.4115  15.4126  15.4276  15.4311
    15.4361  15.4446  15.4464  15.4525  15.4606  15.4655  15.4812  15.4956
    15.4985  15.5091  15.5264  15.5458  15.5581  15.5651  15.5804  15.5891
    15.6064  15.6300  15.6371  15.6555  15.6647  15.6713  15.6758  15.6865
    15.7020  15.7085  15.7184  15.7310  15.7346  15.7452  15.7590  15.7668
    15.7761  15.7875  15.7952  15.7989  15.8100  15.8148  15.8203  15.8247
    15.8395  15.8444  15.8487  15.8549  15.8651  15.8763  15.8886  15.8972
    15.9097  15.9137  15.9224  15.9287  15.9381  15.9463  15.9691  15.9863
    16.0014  16.0201  16.0261  16.0413  16.0503  16.0896  16.0980  16.1059
    16.1191  16.1252  16.1318  16.1353  16.1415  16.1496  16.1588  16.1677
    16.1732  16.1815  16.1845  16.1931  16.2017  16.2121  16.2215  16.2240
    16.2382  16.2422  16.2469  16.2533  16.2681  16.2845  16.2919  16.3023
    16.3111  16.3170  16.3297  16.3484  16.3532  16.3681  16.3967  16.4537
    16.4596  16.4814  16.5037  16.5137  16.5453  16.5738  16.5972  16.6144
    16.6227  16.6299  16.6397  16.6434  16.6543  16.6631  16.6654  16.6743
    16.6812  16.6856  16.6964  16.7036  16.7086  16.7149  16.7270  16.7385
    16.7419  16.7545  16.7634  16.7734  16.7770  16.7881  16.7916  16.8144
    16.9756  16.9809  17.0190  17.0291  17.0774  17.0887  17.1160  17.1220
    17.1564  17.1719  17.1845  17.1901  17.2054  17.2280  17.2378  17.2569
    17.2664  17.2703  17.2893  17.3123  17.3201  17.3219  17.3319  17.3374
    17.3491  17.3611  17.3741  17.3881  17.3912  17.3977  17.4085  17.4117
    17.4258  17.4333  17.4444  17.4494  17.4546  17.4591  17.4653  17.4783

     highest occupied, lowest unoccupied level (ev):     7.0620    7.2478

!    total energy              =  -35631.67468457 Ry
     estimated scf accuracy    <       0.00000370 Ry

     The total energy is the sum of the following terms:
     one-electron contribution =  -17794.14057582 Ry
     hartree contribution      =   10636.99482498 Ry
     xc contribution           =   -9354.61579801 Ry
     ewald contribution        =  -19122.14155875 Ry
     Hubbard energy            =       2.22842305 Ry

     convergence has been achieved in  12 iterations

     Writing all to output data dir ./tmp_In1.0Ga0.0As0.5Sb0.5_cube_3x3x3.4/In1.0Ga0.0As0.5Sb0.5_cube_3x3x3.4.save/ :
     XML data file, charge density, pseudopotentials, collected wavefunctions

     init_run     :    281.55s CPU    284.87s WALL (       1 calls)
     electrons    :  10636.01s CPU  10661.93s WALL (       1 calls)

     Called by init_run:
     wfcinit      :    270.60s CPU    273.28s WALL (       1 calls)
     potinit      :      2.30s CPU      2.39s WALL (       1 calls)
     hinit0       :      0.73s CPU      0.84s WALL (       1 calls)

     Called by electrons:
     c_bands      :  10214.01s CPU  10238.17s WALL (      13 calls)
     sum_band     :    415.30s CPU    416.04s WALL (      13 calls)
     v_of_rho     :      4.69s CPU      4.95s WALL (      13 calls)
     mix_rho      :      1.06s CPU      1.09s WALL (      13 calls)

     Called by c_bands:
     init_us_2    :     40.07s CPU     40.74s WALL (      28 calls)
     cegterg      :   9763.65s CPU   9786.38s WALL (      13 calls)

     Called by *egterg:
     cdiaghg      :    842.76s CPU    843.90s WALL (     106 calls)
     h_psi        :   6083.02s CPU   6095.32s WALL (     108 calls)
     g_psi        :      4.94s CPU      4.94s WALL (      94 calls)

     Called by h_psi:
     h_psi:calbec :    941.03s CPU    941.09s WALL (     108 calls)
     vloc_psi     :   1156.10s CPU   1158.54s WALL (     108 calls)
     add_vuspsi   :    928.27s CPU    931.06s WALL (     108 calls)
     vhpsi        :   3047.60s CPU   3047.81s WALL (     108 calls)

     General routines
     calbec       :   1190.24s CPU   1190.32s WALL (     230 calls)
     fft          :      2.88s CPU      3.18s WALL (     131 calls)
     ffts         :      0.27s CPU      0.27s WALL (      13 calls)
     fftw         :   1216.52s CPU   1219.04s WALL (  164066 calls)

     Parallel routines

     Hubbard U routines
     new_ns       :     65.43s CPU     65.45s WALL (      13 calls)
     vhpsi        :   3047.60s CPU   3047.81s WALL (     108 calls)

     PWSCF        :      3h 2m CPU      3h 5m WALL


   This run was terminated on:  12:39:37  30Jan2026            

=------------------------------------------------------------------------------=
   JOB DONE.
=------------------------------------------------------------------------------=
