
     Program PWSCF v.7.3.1 starts on 30Jan2026 at 22:41: 2 

     This program is part of the open-source Quantum ESPRESSO suite
     for quantum simulation of materials; please cite
         "P. Giannozzi et al., J. Phys.:Condens. Matter 21 395502 (2009);
         "P. Giannozzi et al., J. Phys.:Condens. Matter 29 465901 (2017);
         "P. Giannozzi et al., J. Chem. Phys. 152 154105 (2020);
          URL http://www.quantum-espresso.org", 
     in publications or presentations arising from this work. More details at
     http://www.quantum-espresso.org/quote

     Parallel version (MPI), running on   640 processors

     MPI processes distributed on     5 nodes
     420294 MiB available memory on the printing compute node when the environment starts

     Reading input from In1.0Ga0.0As0.5Sb0.5_cube_3x3x3.8.scf.in
Warning: card &CELL ignored
Warning: card   CELL_DOFREE = 'ALL', ignored
Warning: card / ignored

     Current dimensions of program PWSCF are:
     Max number of different atomic species (ntypx) = 10
     Max number of k-points (npk) =  40000
     Max angular momentum in pseudopotentials (lmaxx) =  4

     K-points division:     npool     =       8
     R & G space division:  proc/nbgrp/npool/nimage =      80
     Subspace diagonalization in iterative solution of the eigenvalue problem:
     one sub-group per band group will be used
     custom distributed-memory algorithm (size of sub-group:  8*  8 procs)


     Parallelization info
     --------------------
     sticks:   dense  smooth     PW     G-vecs:    dense   smooth      PW
     Min         610     610    157               101452   101452   13220
     Max         611     611    159               101457   101457   13227
     Sum       48841   48841  12565              8116289  8116289 1057963

     Using Slab Decomposition



     bravais-lattice index     =            1
     lattice parameter (alat)  =      35.7526  a.u.
     unit-cell volume          =   45700.8457 (a.u.)^3
     number of atoms/cell      =          216
     number of atomic types    =            4
     number of electrons       =      3024.00
     number of Kohn-Sham states=         2160
     kinetic-energy cutoff     =     120.0000  Ry
     charge density cutoff     =     480.0000  Ry
     scf convergence threshold =      1.0E-05
     mixing beta               =       0.6500
     number of iterations used =            8  plain     mixing
     Exchange-correlation= PBE
                           (   1   4   3   4   0   0   0)
     Hubbard projectors: atomic
     Hubbard parameters of DFT+U (Dudarev formulation) in eV:
     U(As-4p) =  3.2600
     U(Ga-4p) = -2.8000
     U(In-5p) = -1.0150
     U(Sb-5p) =  3.1600

     Internal variables: lda_plus_u =T, lda_plus_u_kind = 0

     celldm(1)=  35.752637  celldm(2)=   0.000000  celldm(3)=   0.000000
     celldm(4)=   0.000000  celldm(5)=   0.000000  celldm(6)=   0.000000

     crystal axes: (cart. coord. in units of alat)
               a(1) = (   1.000000   0.000000   0.000000 )  
               a(2) = (   0.000000   1.000000   0.000000 )  
               a(3) = (   0.000000   0.000000   1.000000 )  

     reciprocal axes: (cart. coord. in units 2 pi/alat)
               b(1) = (  1.000000  0.000000  0.000000 )  
               b(2) = (  0.000000  1.000000  0.000000 )  
               b(3) = (  0.000000  0.000000  1.000000 )  


     PseudoPot. # 1 for As read from file:
     /work/i254/i254/gentles/data/pseudos/As.pbe.NC-SR.standard.v0.5.UPF
     MD5 check sum: bfe1a874457ce592347346129958e7cf
     Pseudo is Norm-conserving + core correction, Zval = 15.0
     Generated using ONCVPSP code by D. R. Hamann
     Using radial grid of 1358 points,  6 beta functions with: 
                l(1) =   0
                l(2) =   0
                l(3) =   1
                l(4) =   1
                l(5) =   2
                l(6) =   2

     PseudoPot. # 2 for Ga read from file:
     /work/i254/i254/gentles/data/pseudos/Ga.pbe.NC-SR.standard.v0.5.UPF
     MD5 check sum: 2bb81bf6f0a8d9832cf3329850435ecf
     Pseudo is Norm-conserving + core correction, Zval = 13.0
     Generated using ONCVPSP code by D. R. Hamann
     Using radial grid of 1902 points,  6 beta functions with: 
                l(1) =   0
                l(2) =   0
                l(3) =   1
                l(4) =   1
                l(5) =   2
                l(6) =   2

     PseudoPot. # 3 for In read from file:
     /work/i254/i254/gentles/data/pseudos/In.pbe.NC-SR.standard.v0.5.UPF
     MD5 check sum: 835f4bf908c982ff75c88e16816a8d7f
     Pseudo is Norm-conserving + core correction, Zval = 13.0
     Generated using ONCVPSP code by D. R. Hamann
     Using radial grid of 1964 points,  6 beta functions with: 
                l(1) =   0
                l(2) =   0
                l(3) =   1
                l(4) =   1
                l(5) =   2
                l(6) =   2

     PseudoPot. # 4 for Sb read from file:
     /work/i254/i254/gentles/data/pseudos/Sb.pbe.NC-SR.standard.v0.5.UPF
     MD5 check sum: 127f69b6101c45666faeae1b5d611565
     Pseudo is Norm-conserving + core correction, Zval = 15.0
     Generated using ONCVPSP code by D. R. Hamann
     Using radial grid of 1434 points,  6 beta functions with: 
                l(1) =   0
                l(2) =   0
                l(3) =   1
                l(4) =   1
                l(5) =   2
                l(6) =   2

     atomic species   valence    mass     pseudopotential
     As               15.00    74.92160     As( 1.00)
     Ga               13.00    69.72300     Ga( 1.00)
     In               13.00   114.81800     In( 1.00)
     Sb               15.00   121.76000     Sb( 1.00)

     No symmetry found



   Cartesian axes

     site n.     atom                  positions (alat units)
         1        In     tau(   1) = (   0.0054710  -0.0026180  -0.0055400  )
         2        In     tau(   2) = (  -0.0001000   0.1667940   0.1672480  )
         3        In     tau(   3) = (   0.1728750   0.0040230   0.1732140  )
         4        In     tau(   4) = (   0.1763070   0.1677230  -0.0016920  )
         5        Sb     tau(   5) = (   0.0878950   0.0837610   0.0826000  )
         6        Sb     tau(   6) = (   0.0847000   0.2531830   0.2518480  )
         7        As     tau(   7) = (   0.2551190   0.0864430   0.2506600  )
         8        As     tau(   8) = (   0.2528510   0.2479600   0.0859990  )
         9        In     tau(   9) = (  -0.0060480  -0.0029160   0.3417720  )
        10        In     tau(  10) = (  -0.0006930   0.1679490   0.5088790  )
        11        In     tau(  11) = (   0.1674180   0.0002450   0.5114820  )
        12        In     tau(  12) = (   0.1712650   0.1635230   0.3318020  )
        13        Sb     tau(  13) = (   0.0841490   0.0834110   0.4218250  )
        14        As     tau(  14) = (   0.0804590   0.2518660   0.5865620  )
        15        As     tau(  15) = (   0.2510370   0.0863880   0.5856230  )
        16        Sb     tau(  16) = (   0.2524860   0.2505550   0.4187260  )
        17        In     tau(  17) = (  -0.0033640  -0.0051450   0.6627700  )
        18        In     tau(  18) = (  -0.0041610   0.1709440   0.8256830  )
        19        In     tau(  19) = (   0.1645420   0.0017960   0.8390200  )
        20        In     tau(  20) = (   0.1687330   0.1709530   0.6611470  )
        21        Sb     tau(  21) = (   0.0828040   0.0832470   0.7454010  )
        22        Sb     tau(  22) = (   0.0869110   0.2502570   0.9117540  )
        23        As     tau(  23) = (   0.2524790   0.0841700   0.9142030  )
        24        As     tau(  24) = (   0.2501450   0.2474920   0.7448520  )
        25        In     tau(  25) = (   0.0008860   0.3322660   0.0002160  )
        26        In     tau(  26) = (  -0.0105260   0.5006540   0.1681580  )
        27        In     tau(  27) = (   0.1754240   0.3335420   0.1677590  )
        28        In     tau(  28) = (   0.1590980   0.5036890  -0.0055830  )
        29        Sb     tau(  29) = (   0.0827270   0.4180230   0.0870130  )
        30        Sb     tau(  30) = (   0.0826820   0.5792510   0.2539710  )
        31        As     tau(  31) = (   0.2513860   0.4150000   0.2539100  )
        32        Sb     tau(  32) = (   0.2503370   0.5816950   0.0802910  )
        33        In     tau(  33) = (  -0.0005140   0.3424900   0.3354430  )
        34        In     tau(  34) = (   0.0031510   0.4952220   0.5038780  )
        35        In     tau(  35) = (   0.1575310   0.3308610   0.4996240  )
        36        In     tau(  36) = (   0.1710100   0.4947680   0.3392140  )
        37        As     tau(  37) = (   0.0835150   0.4173900   0.4188920  )
        38        As     tau(  38) = (   0.0821220   0.5825020   0.5814470  )
        39        Sb     tau(  39) = (   0.2480180   0.4144790   0.5825400  )
        40        As     tau(  40) = (   0.2491390   0.5810380   0.4202940  )
        41        In     tau(  41) = (  -0.0023700   0.3344540   0.6665160  )
        42        In     tau(  42) = (   0.0072650   0.4990980   0.8289840  )
        43        In     tau(  43) = (   0.1681480   0.3337150   0.8199240  )
        44        In     tau(  44) = (   0.1593720   0.5002210   0.6654010  )
        45        As     tau(  45) = (   0.0819670   0.4154680   0.7448090  )
        46        As     tau(  46) = (   0.0804250   0.5850790   0.9132500  )
        47        Sb     tau(  47) = (   0.2473760   0.4155450   0.9142300  )
        48        Sb     tau(  48) = (   0.2483710   0.5834150   0.7494380  )
        49        In     tau(  49) = (  -0.0061940   0.6620460  -0.0057210  )
        50        In     tau(  50) = (   0.0001620   0.8339970   0.1658540  )
        51        In     tau(  51) = (   0.1654070   0.6648840   0.1663390  )
        52        In     tau(  52) = (   0.1658470   0.8331620  -0.0085930  )
        53        Sb     tau(  53) = (   0.0812640   0.7480290   0.0776800  )
        54        Sb     tau(  54) = (   0.0828000   0.9179030   0.2543490  )
        55        Sb     tau(  55) = (   0.2478130   0.7489350   0.2552400  )
        56        Sb     tau(  56) = (   0.2495480   0.9194240   0.0791130  )
        57        In     tau(  57) = (   0.0042350   0.6684680   0.3417420  )
        58        In     tau(  58) = (  -0.0006130   0.8334990   0.5021840  )
        59        In     tau(  59) = (   0.1656600   0.6630620   0.5009910  )
        60        In     tau(  60) = (   0.1611470   0.8303260   0.3426030  )
        61        As     tau(  61) = (   0.0824030   0.7490160   0.4248220  )
        62        As     tau(  62) = (   0.0814360   0.9150780   0.5832030  )
        63        As     tau(  63) = (   0.2474420   0.7479620   0.5789670  )
        64        Sb     tau(  64) = (   0.2506020   0.9182960   0.4209250  )
        65        In     tau(  65) = (  -0.0002120   0.6675540   0.6580430  )
        66        In     tau(  66) = (  -0.0048860   0.8358080   0.8337480  )
        67        In     tau(  67) = (   0.1663620   0.6690180   0.8383670  )
        68        In     tau(  68) = (   0.1671790   0.8334380   0.6593770  )
        69        Sb     tau(  69) = (   0.0822640   0.7511230   0.7484390  )
        70        As     tau(  70) = (   0.0823680   0.9149040   0.9126170  )
        71        As     tau(  71) = (   0.2505120   0.7506450   0.9157120  )
        72        Sb     tau(  72) = (   0.2488400   0.9193680   0.7498190  )
        73        In     tau(  73) = (   0.3370220   0.0057800  -0.0042740  )
        74        In     tau(  74) = (   0.3356560   0.1677180   0.1675770  )
        75        In     tau(  75) = (   0.4975830   0.0050780   0.1649290  )
        76        In     tau(  76) = (   0.4994270   0.1596140   0.0000660  )
        77        As     tau(  77) = (   0.4150740   0.0846880   0.0833370  )
        78        As     tau(  78) = (   0.4149470   0.2497560   0.2525020  )
        79        Sb     tau(  79) = (   0.5831700   0.0895220   0.2519560  )
        80        Sb     tau(  80) = (   0.5850830   0.2489400   0.0813500  )
        81        In     tau(  81) = (   0.3342400   0.0094410   0.3374150  )
        82        In     tau(  82) = (   0.3363320   0.1641780   0.5053200  )
        83        In     tau(  83) = (   0.4990990   0.0108630   0.5001990  )
        84        In     tau(  84) = (   0.4967020   0.1731830   0.3383580  )
        85        As     tau(  85) = (   0.4167290   0.0894630   0.4186870  )
        86        As     tau(  86) = (   0.4191330   0.2459180   0.5840590  )
        87        As     tau(  87) = (   0.5828230   0.0883460   0.5824210  )
        88        As     tau(  88) = (   0.5826950   0.2488730   0.4201460  )
        89        In     tau(  89) = (   0.3336370   0.0089820   0.6685540  )
        90        In     tau(  90) = (   0.3294250   0.1643140   0.8266240  )
        91        In     tau(  91) = (   0.4966600   0.0053450   0.8336300  )
        92        In     tau(  92) = (   0.5011720   0.1669710   0.6677280  )
        93        As     tau(  93) = (   0.4175960   0.0868580   0.7489030  )
        94        Sb     tau(  94) = (   0.4172660   0.2476900   0.9130860  )
        95        As     tau(  95) = (   0.5812800   0.0842590   0.9149890  )
        96        As     tau(  96) = (   0.5834650   0.2469540   0.7493180  )
        97        In     tau(  97) = (   0.3298030   0.3280380   0.0019170  )
        98        In     tau(  98) = (   0.3296190   0.4962630   0.1719040  )
        99        In     tau(  99) = (   0.4980970   0.3277100   0.1714600  )
       100        In     tau( 100) = (   0.4999850   0.4968720  -0.0069640  )
       101        Sb     tau( 101) = (   0.4161520   0.4144060   0.0842440  )
       102        Sb     tau( 102) = (   0.4165760   0.5806650   0.2563990  )
       103        Sb     tau( 103) = (   0.5846740   0.4129550   0.2562650  )
       104        Sb     tau( 104) = (   0.5849250   0.5810310   0.0807890  )
       105        In     tau( 105) = (   0.3373840   0.3369190   0.3318640  )
       106        In     tau( 106) = (   0.3351200   0.5000850   0.4977110  )
       107        In     tau( 107) = (   0.4957580   0.3283730   0.4977370  )
       108        In     tau( 108) = (   0.5020550   0.4968430   0.3445950  )
       109        As     tau( 109) = (   0.4163200   0.4148050   0.4188850  )
       110        As     tau( 110) = (   0.4151880   0.5843530   0.5776540  )
       111        Sb     tau( 111) = (   0.5840950   0.4143620   0.5793030  )
       112        As     tau( 112) = (   0.5851850   0.5813480   0.4191490  )
       113        In     tau( 113) = (   0.3344640   0.3244910   0.6642640  )
       114        In     tau( 114) = (   0.3374250   0.5013010   0.8349910  )
       115        In     tau( 115) = (   0.5087870   0.3332070   0.8305960  )
       116        In     tau( 116) = (   0.4969680   0.5036510   0.6586710  )
       117        Sb     tau( 117) = (   0.4185280   0.4148970   0.7468390  )
       118        As     tau( 118) = (   0.4172520   0.5814260   0.9161340  )
       119        As     tau( 119) = (   0.5851520   0.4164380   0.9143460  )
       120        Sb     tau( 120) = (   0.5855460   0.5813510   0.7491650  )
       121        In     tau( 121) = (   0.3336900   0.6661780  -0.0077510  )
       122        In     tau( 122) = (   0.3310750   0.8340090   0.1673750  )
       123        In     tau( 123) = (   0.4980740   0.6647880   0.1653050  )
       124        In     tau( 124) = (   0.4979090   0.8415020  -0.0071150  )
       125        Sb     tau( 125) = (   0.4163160   0.7521980   0.0789770  )
       126        Sb     tau( 126) = (   0.4160140   0.9190090   0.2534980  )
       127        Sb     tau( 127) = (   0.5840980   0.7472360   0.2516710  )
       128        Sb     tau( 128) = (   0.5852180   0.9198350   0.0818040  )
       129        In     tau( 129) = (   0.3317790   0.6647210   0.3431090  )
       130        In     tau( 130) = (   0.3342680   0.8261130   0.5004390  )
       131        In     tau( 131) = (   0.5004020   0.6628100   0.4972370  )
       132        In     tau( 132) = (   0.4968450   0.8292670   0.3400390  )
       133        As     tau( 133) = (   0.4167680   0.7457160   0.4203460  )
       134        Sb     tau( 134) = (   0.4148900   0.9201410   0.5823870  )
       135        Sb     tau( 135) = (   0.5859970   0.7476090   0.5845410  )
       136        Sb     tau( 136) = (   0.5830380   0.9194080   0.4209210  )
       137        In     tau( 137) = (   0.3302990   0.6660450   0.6570190  )
       138        In     tau( 138) = (   0.3320850   0.8350790   0.8380500  )
       139        In     tau( 139) = (   0.4970500   0.6615810   0.8349640  )
       140        In     tau( 140) = (   0.4993280   0.8340020   0.6672720  )
       141        Sb     tau( 141) = (   0.4128180   0.7480240   0.7497370  )
       142        As     tau( 142) = (   0.4152560   0.9221220   0.9135600  )
       143        Sb     tau( 143) = (   0.5844900   0.7501820   0.9142360  )
       144        Sb     tau( 144) = (   0.5845160   0.9215680   0.7477010  )
       145        In     tau( 145) = (   0.6668320   0.0078790  -0.0038510  )
       146        In     tau( 146) = (   0.6745580   0.1705960   0.1683520  )
       147        In     tau( 147) = (   0.8289480   0.0056950   0.1589160  )
       148        In     tau( 148) = (   0.8237410   0.1671990  -0.0028050  )
       149        As     tau( 149) = (   0.7466540   0.0872360   0.0809110  )
       150        As     tau( 150) = (   0.7499080   0.2507960   0.2562300  )
       151        Sb     tau( 151) = (   0.9127620   0.0834620   0.2527610  )
       152        Sb     tau( 152) = (   0.9116420   0.2492480   0.0838110  )
       153        In     tau( 153) = (   0.6691660   0.0051110   0.3378240  )
       154        In     tau( 154) = (   0.6659370   0.1680070   0.5014450  )
       155        In     tau( 155) = (   0.8336100   0.0023300   0.5020460  )
       156        In     tau( 156) = (   0.8264080   0.1675110   0.3383770  )
       157        As     tau( 157) = (   0.7490690   0.0846500   0.4221910  )
       158        As     tau( 158) = (   0.7499560   0.2501160   0.5813120  )
       159        As     tau( 159) = (   0.9164150   0.0822630   0.5841000  )
       160        Sb     tau( 160) = (   0.9151010   0.2536180   0.4207030  )
       161        In     tau( 161) = (   0.6671330   0.0034040   0.6563390  )
       162        In     tau( 162) = (   0.6617850   0.1683670   0.8349420  )
       163        In     tau( 163) = (   0.8366660  -0.0040950   0.8257160  )
       164        In     tau( 164) = (   0.8364570   0.1706110   0.6605830  )
       165        Sb     tau( 165) = (   0.7497570   0.0865440   0.7465900  )
       166        As     tau( 166) = (   0.7464410   0.2492500   0.9132120  )
       167        Sb     tau( 167) = (   0.9155000   0.0843070   0.9137390  )
       168        As     tau( 168) = (   0.9157750   0.2512970   0.7445730  )
       169        In     tau( 169) = (   0.6673120   0.3347100  -0.0071980  )
       170        In     tau( 170) = (   0.6687560   0.5003860   0.1715430  )
       171        In     tau( 171) = (   0.8327920   0.3326960   0.1771060  )
       172        In     tau( 172) = (   0.8338920   0.5066710  -0.0017860  )
       173        Sb     tau( 173) = (   0.7521290   0.4164980   0.0835810  )
       174        As     tau( 174) = (   0.7509070   0.5803710   0.2514790  )
       175        As     tau( 175) = (   0.9135940   0.4180010   0.2529460  )
       176        As     tau( 176) = (   0.9139470   0.5844690   0.0825420  )
       177        In     tau( 177) = (   0.6692210   0.3284030   0.3422470  )
       178        In     tau( 178) = (   0.6712740   0.5028990   0.4973770  )
       179        In     tau( 179) = (   0.8290030   0.3391760   0.5047190  )
       180        In     tau( 180) = (   0.8293260   0.4960860   0.3328410  )
       181        As     tau( 181) = (   0.7497340   0.4169470   0.4182020  )
       182        As     tau( 182) = (   0.7524730   0.5813210   0.5829840  )
       183        As     tau( 183) = (   0.9178790   0.4153260   0.5833260  )
       184        Sb     tau( 184) = (   0.9157950   0.5800270   0.4207090  )
       185        In     tau( 185) = (   0.6653150   0.3240130   0.6658460  )
       186        In     tau( 186) = (   0.6693390   0.4995400   0.8393580  )
       187        In     tau( 187) = (   0.8333220   0.3247250   0.8310900  )
       188        In     tau( 188) = (   0.8341500   0.4972920   0.6598820  )
       189        Sb     tau( 189) = (   0.7494690   0.4131900   0.7486040  )
       190        As     tau( 190) = (   0.7519870   0.5862170   0.9154920  )
       191        Sb     tau( 191) = (   0.9171250   0.4168820   0.9134550  )
       192        Sb     tau( 192) = (   0.9168970   0.5835380   0.7466220  )
       193        In     tau( 193) = (   0.6735530   0.6670610  -0.0005760  )
       194        In     tau( 194) = (   0.6710510   0.8290030   0.1635360  )
       195        In     tau( 195) = (   0.8303090   0.6619060   0.1664850  )
       196        In     tau( 196) = (   0.8336490   0.8237950  -0.0004600  )
       197        As     tau( 197) = (   0.7526390   0.7457630   0.0840550  )
       198        Sb     tau( 198) = (   0.7515280   0.9188940   0.2498900  )
       199        Sb     tau( 199) = (   0.9174070   0.7479340   0.2521220  )
       200        Sb     tau( 200) = (   0.9156540   0.9168760   0.0792490  )
       201        In     tau( 201) = (   0.6678790   0.6580180   0.3348020  )
       202        In     tau( 202) = (   0.6719490   0.8382980   0.5059460  )
       203        In     tau( 203) = (   0.8349430   0.6668010   0.5088470  )
       204        In     tau( 204) = (   0.8378310   0.8373140   0.3387950  )
       205        Sb     tau( 205) = (   0.7509170   0.7486460   0.4193260  )
       206        As     tau( 206) = (   0.7545980   0.9191230   0.5846950  )
       207        As     tau( 207) = (   0.9170060   0.7528180   0.5835270  )
       208        As     tau( 208) = (   0.9156080   0.9166850   0.4240930  )
       209        In     tau( 209) = (   0.6765230   0.6642470   0.6671740  )
       210        In     tau( 210) = (   0.6708100   0.8300680   0.8249090  )
       211        In     tau( 211) = (   0.8316360   0.6697050   0.8330260  )
       212        In     tau( 212) = (   0.8352480   0.8336180   0.6659340  )
       213        As     tau( 213) = (   0.7548370   0.7499500   0.7462570  )
       214        Sb     tau( 214) = (   0.7515420   0.9146580   0.9152310  )
       215        As     tau( 215) = (   0.9153130   0.7483070   0.9142020  )
       216        As     tau( 216) = (   0.9170070   0.9142620   0.7465590  )

     number of k points=     8
                       cart. coord. in units 2pi/alat
        k(    1) = (   0.0000000   0.0000000   0.0000000), wk =   0.2500000
        k(    2) = (   0.0000000   0.0000000  -0.5000000), wk =   0.2500000
        k(    3) = (   0.0000000  -0.5000000  -0.5000000), wk =   0.2500000
        k(    4) = (  -0.5000000  -0.5000000  -0.5000000), wk =   0.2500000
        k(    5) = (  -0.5000000   0.0000000   0.0000000), wk =   0.2500000
        k(    6) = (   0.0000000  -0.5000000   0.0000000), wk =   0.2500000
        k(    7) = (  -0.5000000   0.0000000   0.5000000), wk =   0.2500000
        k(    8) = (  -0.5000000   0.5000000   0.0000000), wk =   0.2500000

     Dense  grid:  8116289 G-vectors     FFT dimensions: ( 250, 250, 250)

     Estimated max dynamical RAM per process >       3.11 GB

     Estimated total dynamical RAM >    1976.85 GB

     Initial potential from superposition of free atoms

     starting charge    3023.5361, renormalised to    3024.0000

     STARTING HUBBARD OCCUPATIONS:

     =================== HUBBARD OCCUPATIONS ===================
     ------------------------ ATOM    1 ------------------------
     Tr[ns(  1)] =   1.00000
     eigenvalues:
       0.167  0.167  0.167
     eigenvectors (columns):
       1.000  0.000  0.000
       0.000  1.000  0.000
       0.000  0.000  1.000
     occupation matrix ns (before diag.):
       0.167  0.000  0.000
       0.000  0.167  0.000
       0.000  0.000  0.167
     ------------------------ ATOM    2 ------------------------
     Tr[ns(  2)] =   1.00000
     eigenvalues:
       0.167  0.167  0.167
     eigenvectors (columns):
       1.000  0.000  0.000
       0.000  1.000  0.000
       0.000  0.000  1.000
     occupation matrix ns (before diag.):
       0.167  0.000  0.000
       0.000  0.167  0.000
       0.000  0.000  0.167
     ------------------------ ATOM    3 ------------------------
     Tr[ns(  3)] =   1.00000
     eigenvalues:
       0.167  0.167  0.167
     eigenvectors (columns):
       1.000  0.000  0.000
       0.000  1.000  0.000
       0.000  0.000  1.000
     occupation matrix ns (before diag.):
       0.167  0.000  0.000
       0.000  0.167  0.000
       0.000  0.000  0.167
     ------------------------ ATOM    4 ------------------------
     Tr[ns(  4)] =   1.00000
     eigenvalues:
       0.167  0.167  0.167
     eigenvectors (columns):
       1.000  0.000  0.000
       0.000  1.000  0.000
       0.000  0.000  1.000
     occupation matrix ns (before diag.):
       0.167  0.000  0.000
       0.000  0.167  0.000
       0.000  0.000  0.167
     ------------------------ ATOM    5 ------------------------
     Tr[ns(  5)] =   3.00000
     eigenvalues:
       0.500  0.500  0.500
     eigenvectors (columns):
       1.000  0.000  0.000
       0.000  1.000  0.000
       0.000  0.000  1.000
     occupation matrix ns (before diag.):
       0.500  0.000  0.000
       0.000  0.500  0.000
       0.000  0.000  0.500
     ------------------------ ATOM    6 ------------------------
     Tr[ns(  6)] =   3.00000
     eigenvalues:
       0.500  0.500  0.500
     eigenvectors (columns):
       1.000  0.000  0.000
       0.000  1.000  0.000
       0.000  0.000  1.000
     occupation matrix ns (before diag.):
       0.500  0.000  0.000
       0.000  0.500  0.000
       0.000  0.000  0.500
     ------------------------ ATOM    7 ------------------------
     Tr[ns(  7)] =   3.00000
     eigenvalues:
       0.500  0.500  0.500
     eigenvectors (columns):
       1.000  0.000  0.000
       0.000  1.000  0.000
       0.000  0.000  1.000
     occupation matrix ns (before diag.):
       0.500  0.000  0.000
       0.000  0.500  0.000
       0.000  0.000  0.500
     ------------------------ ATOM    8 ------------------------
     Tr[ns(  8)] =   3.00000
     eigenvalues:
       0.500  0.500  0.500
     eigenvectors (columns):
       1.000  0.000  0.000
       0.000  1.000  0.000
       0.000  0.000  1.000
     occupation matrix ns (before diag.):
       0.500  0.000  0.000
       0.000  0.500  0.000
       0.000  0.000  0.500
     ------------------------ ATOM    9 ------------------------
     Tr[ns(  9)] =   1.00000
     eigenvalues:
       0.167  0.167  0.167
     eigenvectors (columns):
       1.000  0.000  0.000
       0.000  1.000  0.000
       0.000  0.000  1.000
     occupation matrix ns (before diag.):
       0.167  0.000  0.000
       0.000  0.167  0.000
       0.000  0.000  0.167
     ------------------------ ATOM   10 ------------------------
     Tr[ns( 10)] =   1.00000
     eigenvalues:
       0.167  0.167  0.167
     eigenvectors (columns):
       1.000  0.000  0.000
       0.000  1.000  0.000
       0.000  0.000  1.000
     occupation matrix ns (before diag.):
       0.167  0.000  0.000
       0.000  0.167  0.000
       0.000  0.000  0.167
     ------------------------ ATOM   11 ------------------------
     Tr[ns( 11)] =   1.00000
     eigenvalues:
       0.167  0.167  0.167
     eigenvectors (columns):
       1.000  0.000  0.000
       0.000  1.000  0.000
       0.000  0.000  1.000
     occupation matrix ns (before diag.):
       0.167  0.000  0.000
       0.000  0.167  0.000
       0.000  0.000  0.167
     ------------------------ ATOM   12 ------------------------
     Tr[ns( 12)] =   1.00000
     eigenvalues:
       0.167  0.167  0.167
     eigenvectors (columns):
       1.000  0.000  0.000
       0.000  1.000  0.000
       0.000  0.000  1.000
     occupation matrix ns (before diag.):
       0.167  0.000  0.000
       0.000  0.167  0.000
       0.000  0.000  0.167
     ------------------------ ATOM   13 ------------------------
     Tr[ns( 13)] =   3.00000
     eigenvalues:
       0.500  0.500  0.500
     eigenvectors (columns):
       1.000  0.000  0.000
       0.000  1.000  0.000
       0.000  0.000  1.000
     occupation matrix ns (before diag.):
       0.500  0.000  0.000
       0.000  0.500  0.000
       0.000  0.000  0.500
     ------------------------ ATOM   14 ------------------------
     Tr[ns( 14)] =   3.00000
     eigenvalues:
       0.500  0.500  0.500
     eigenvectors (columns):
       1.000  0.000  0.000
       0.000  1.000  0.000
       0.000  0.000  1.000
     occupation matrix ns (before diag.):
       0.500  0.000  0.000
       0.000  0.500  0.000
       0.000  0.000  0.500
     ------------------------ ATOM   15 ------------------------
     Tr[ns( 15)] =   3.00000
     eigenvalues:
       0.500  0.500  0.500
     eigenvectors (columns):
       1.000  0.000  0.000
       0.000  1.000  0.000
       0.000  0.000  1.000
     occupation matrix ns (before diag.):
       0.500  0.000  0.000
       0.000  0.500  0.000
       0.000  0.000  0.500
     ------------------------ ATOM   16 ------------------------
     Tr[ns( 16)] =   3.00000
     eigenvalues:
       0.500  0.500  0.500
     eigenvectors (columns):
       1.000  0.000  0.000
       0.000  1.000  0.000
       0.000  0.000  1.000
     occupation matrix ns (before diag.):
       0.500  0.000  0.000
       0.000  0.500  0.000
       0.000  0.000  0.500
     ------------------------ ATOM   17 ------------------------
     Tr[ns( 17)] =   1.00000
     eigenvalues:
       0.167  0.167  0.167
     eigenvectors (columns):
       1.000  0.000  0.000
       0.000  1.000  0.000
       0.000  0.000  1.000
     occupation matrix ns (before diag.):
       0.167  0.000  0.000
       0.000  0.167  0.000
       0.000  0.000  0.167
     ------------------------ ATOM   18 ------------------------
     Tr[ns( 18)] =   1.00000
     eigenvalues:
       0.167  0.167  0.167
     eigenvectors (columns):
       1.000  0.000  0.000
       0.000  1.000  0.000
       0.000  0.000  1.000
     occupation matrix ns (before diag.):
       0.167  0.000  0.000
       0.000  0.167  0.000
       0.000  0.000  0.167
     ------------------------ ATOM   19 ------------------------
     Tr[ns( 19)] =   1.00000
     eigenvalues:
       0.167  0.167  0.167
     eigenvectors (columns):
       1.000  0.000  0.000
       0.000  1.000  0.000
       0.000  0.000  1.000
     occupation matrix ns (before diag.):
       0.167  0.000  0.000
       0.000  0.167  0.000
       0.000  0.000  0.167
     ------------------------ ATOM   20 ------------------------
     Tr[ns( 20)] =   1.00000
     eigenvalues:
       0.167  0.167  0.167
     eigenvectors (columns):
       1.000  0.000  0.000
       0.000  1.000  0.000
       0.000  0.000  1.000
     occupation matrix ns (before diag.):
       0.167  0.000  0.000
       0.000  0.167  0.000
       0.000  0.000  0.167
     ------------------------ ATOM   21 ------------------------
     Tr[ns( 21)] =   3.00000
     eigenvalues:
       0.500  0.500  0.500
     eigenvectors (columns):
       1.000  0.000  0.000
       0.000  1.000  0.000
       0.000  0.000  1.000
     occupation matrix ns (before diag.):
       0.500  0.000  0.000
       0.000  0.500  0.000
       0.000  0.000  0.500
     ------------------------ ATOM   22 ------------------------
     Tr[ns( 22)] =   3.00000
     eigenvalues:
       0.500  0.500  0.500
     eigenvectors (columns):
       1.000  0.000  0.000
       0.000  1.000  0.000
       0.000  0.000  1.000
     occupation matrix ns (before diag.):
       0.500  0.000  0.000
       0.000  0.500  0.000
       0.000  0.000  0.500
     ------------------------ ATOM   23 ------------------------
     Tr[ns( 23)] =   3.00000
     eigenvalues:
       0.500  0.500  0.500
     eigenvectors (columns):
       1.000  0.000  0.000
       0.000  1.000  0.000
       0.000  0.000  1.000
     occupation matrix ns (before diag.):
       0.500  0.000  0.000
       0.000  0.500  0.000
       0.000  0.000  0.500
     ------------------------ ATOM   24 ------------------------
     Tr[ns( 24)] =   3.00000
     eigenvalues:
       0.500  0.500  0.500
     eigenvectors (columns):
       1.000  0.000  0.000
       0.000  1.000  0.000
       0.000  0.000  1.000
     occupation matrix ns (before diag.):
       0.500  0.000  0.000
       0.000  0.500  0.000
       0.000  0.000  0.500
     ------------------------ ATOM   25 ------------------------
     Tr[ns( 25)] =   1.00000
     eigenvalues:
       0.167  0.167  0.167
     eigenvectors (columns):
       1.000  0.000  0.000
       0.000  1.000  0.000
       0.000  0.000  1.000
     occupation matrix ns (before diag.):
       0.167  0.000  0.000
       0.000  0.167  0.000
       0.000  0.000  0.167
     ------------------------ ATOM   26 ------------------------
     Tr[ns( 26)] =   1.00000
     eigenvalues:
       0.167  0.167  0.167
     eigenvectors (columns):
       1.000  0.000  0.000
       0.000  1.000  0.000
       0.000  0.000  1.000
     occupation matrix ns (before diag.):
       0.167  0.000  0.000
       0.000  0.167  0.000
       0.000  0.000  0.167
     ------------------------ ATOM   27 ------------------------
     Tr[ns( 27)] =   1.00000
     eigenvalues:
       0.167  0.167  0.167
     eigenvectors (columns):
       1.000  0.000  0.000
       0.000  1.000  0.000
       0.000  0.000  1.000
     occupation matrix ns (before diag.):
       0.167  0.000  0.000
       0.000  0.167  0.000
       0.000  0.000  0.167
     ------------------------ ATOM   28 ------------------------
     Tr[ns( 28)] =   1.00000
     eigenvalues:
       0.167  0.167  0.167
     eigenvectors (columns):
       1.000  0.000  0.000
       0.000  1.000  0.000
       0.000  0.000  1.000
     occupation matrix ns (before diag.):
       0.167  0.000  0.000
       0.000  0.167  0.000
       0.000  0.000  0.167
     ------------------------ ATOM   29 ------------------------
     Tr[ns( 29)] =   3.00000
     eigenvalues:
       0.500  0.500  0.500
     eigenvectors (columns):
       1.000  0.000  0.000
       0.000  1.000  0.000
       0.000  0.000  1.000
     occupation matrix ns (before diag.):
       0.500  0.000  0.000
       0.000  0.500  0.000
       0.000  0.000  0.500
     ------------------------ ATOM   30 ------------------------
     Tr[ns( 30)] =   3.00000
     eigenvalues:
       0.500  0.500  0.500
     eigenvectors (columns):
       1.000  0.000  0.000
       0.000  1.000  0.000
       0.000  0.000  1.000
     occupation matrix ns (before diag.):
       0.500  0.000  0.000
       0.000  0.500  0.000
       0.000  0.000  0.500
     ------------------------ ATOM   31 ------------------------
     Tr[ns( 31)] =   3.00000
     eigenvalues:
       0.500  0.500  0.500
     eigenvectors (columns):
       1.000  0.000  0.000
       0.000  1.000  0.000
       0.000  0.000  1.000
     occupation matrix ns (before diag.):
       0.500  0.000  0.000
       0.000  0.500  0.000
       0.000  0.000  0.500
     ------------------------ ATOM   32 ------------------------
     Tr[ns( 32)] =   3.00000
     eigenvalues:
       0.500  0.500  0.500
     eigenvectors (columns):
       1.000  0.000  0.000
       0.000  1.000  0.000
       0.000  0.000  1.000
     occupation matrix ns (before diag.):
       0.500  0.000  0.000
       0.000  0.500  0.000
       0.000  0.000  0.500
     ------------------------ ATOM   33 ------------------------
     Tr[ns( 33)] =   1.00000
     eigenvalues:
       0.167  0.167  0.167
     eigenvectors (columns):
       1.000  0.000  0.000
       0.000  1.000  0.000
       0.000  0.000  1.000
     occupation matrix ns (before diag.):
       0.167  0.000  0.000
       0.000  0.167  0.000
       0.000  0.000  0.167
     ------------------------ ATOM   34 ------------------------
     Tr[ns( 34)] =   1.00000
     eigenvalues:
       0.167  0.167  0.167
     eigenvectors (columns):
       1.000  0.000  0.000
       0.000  1.000  0.000
       0.000  0.000  1.000
     occupation matrix ns (before diag.):
       0.167  0.000  0.000
       0.000  0.167  0.000
       0.000  0.000  0.167
     ------------------------ ATOM   35 ------------------------
     Tr[ns( 35)] =   1.00000
     eigenvalues:
       0.167  0.167  0.167
     eigenvectors (columns):
       1.000  0.000  0.000
       0.000  1.000  0.000
       0.000  0.000  1.000
     occupation matrix ns (before diag.):
       0.167  0.000  0.000
       0.000  0.167  0.000
       0.000  0.000  0.167
     ------------------------ ATOM   36 ------------------------
     Tr[ns( 36)] =   1.00000
     eigenvalues:
       0.167  0.167  0.167
     eigenvectors (columns):
       1.000  0.000  0.000
       0.000  1.000  0.000
       0.000  0.000  1.000
     occupation matrix ns (before diag.):
       0.167  0.000  0.000
       0.000  0.167  0.000
       0.000  0.000  0.167
     ------------------------ ATOM   37 ------------------------
     Tr[ns( 37)] =   3.00000
     eigenvalues:
       0.500  0.500  0.500
     eigenvectors (columns):
       1.000  0.000  0.000
       0.000  1.000  0.000
       0.000  0.000  1.000
     occupation matrix ns (before diag.):
       0.500  0.000  0.000
       0.000  0.500  0.000
       0.000  0.000  0.500
     ------------------------ ATOM   38 ------------------------
     Tr[ns( 38)] =   3.00000
     eigenvalues:
       0.500  0.500  0.500
     eigenvectors (columns):
       1.000  0.000  0.000
       0.000  1.000  0.000
       0.000  0.000  1.000
     occupation matrix ns (before diag.):
       0.500  0.000  0.000
       0.000  0.500  0.000
       0.000  0.000  0.500
     ------------------------ ATOM   39 ------------------------
     Tr[ns( 39)] =   3.00000
     eigenvalues:
       0.500  0.500  0.500
     eigenvectors (columns):
       1.000  0.000  0.000
       0.000  1.000  0.000
       0.000  0.000  1.000
     occupation matrix ns (before diag.):
       0.500  0.000  0.000
       0.000  0.500  0.000
       0.000  0.000  0.500
     ------------------------ ATOM   40 ------------------------
     Tr[ns( 40)] =   3.00000
     eigenvalues:
       0.500  0.500  0.500
     eigenvectors (columns):
       1.000  0.000  0.000
       0.000  1.000  0.000
       0.000  0.000  1.000
     occupation matrix ns (before diag.):
       0.500  0.000  0.000
       0.000  0.500  0.000
       0.000  0.000  0.500
     ------------------------ ATOM   41 ------------------------
     Tr[ns( 41)] =   1.00000
     eigenvalues:
       0.167  0.167  0.167
     eigenvectors (columns):
       1.000  0.000  0.000
       0.000  1.000  0.000
       0.000  0.000  1.000
     occupation matrix ns (before diag.):
       0.167  0.000  0.000
       0.000  0.167  0.000
       0.000  0.000  0.167
     ------------------------ ATOM   42 ------------------------
     Tr[ns( 42)] =   1.00000
     eigenvalues:
       0.167  0.167  0.167
     eigenvectors (columns):
       1.000  0.000  0.000
       0.000  1.000  0.000
       0.000  0.000  1.000
     occupation matrix ns (before diag.):
       0.167  0.000  0.000
       0.000  0.167  0.000
       0.000  0.000  0.167
     ------------------------ ATOM   43 ------------------------
     Tr[ns( 43)] =   1.00000
     eigenvalues:
       0.167  0.167  0.167
     eigenvectors (columns):
       1.000  0.000  0.000
       0.000  1.000  0.000
       0.000  0.000  1.000
     occupation matrix ns (before diag.):
       0.167  0.000  0.000
       0.000  0.167  0.000
       0.000  0.000  0.167
     ------------------------ ATOM   44 ------------------------
     Tr[ns( 44)] =   1.00000
     eigenvalues:
       0.167  0.167  0.167
     eigenvectors (columns):
       1.000  0.000  0.000
       0.000  1.000  0.000
       0.000  0.000  1.000
     occupation matrix ns (before diag.):
       0.167  0.000  0.000
       0.000  0.167  0.000
       0.000  0.000  0.167
     ------------------------ ATOM   45 ------------------------
     Tr[ns( 45)] =   3.00000
     eigenvalues:
       0.500  0.500  0.500
     eigenvectors (columns):
       1.000  0.000  0.000
       0.000  1.000  0.000
       0.000  0.000  1.000
     occupation matrix ns (before diag.):
       0.500  0.000  0.000
       0.000  0.500  0.000
       0.000  0.000  0.500
     ------------------------ ATOM   46 ------------------------
     Tr[ns( 46)] =   3.00000
     eigenvalues:
       0.500  0.500  0.500
     eigenvectors (columns):
       1.000  0.000  0.000
       0.000  1.000  0.000
       0.000  0.000  1.000
     occupation matrix ns (before diag.):
       0.500  0.000  0.000
       0.000  0.500  0.000
       0.000  0.000  0.500
     ------------------------ ATOM   47 ------------------------
     Tr[ns( 47)] =   3.00000
     eigenvalues:
       0.500  0.500  0.500
     eigenvectors (columns):
       1.000  0.000  0.000
       0.000  1.000  0.000
       0.000  0.000  1.000
     occupation matrix ns (before diag.):
       0.500  0.000  0.000
       0.000  0.500  0.000
       0.000  0.000  0.500
     ------------------------ ATOM   48 ------------------------
     Tr[ns( 48)] =   3.00000
     eigenvalues:
       0.500  0.500  0.500
     eigenvectors (columns):
       1.000  0.000  0.000
       0.000  1.000  0.000
       0.000  0.000  1.000
     occupation matrix ns (before diag.):
       0.500  0.000  0.000
       0.000  0.500  0.000
       0.000  0.000  0.500
     ------------------------ ATOM   49 ------------------------
     Tr[ns( 49)] =   1.00000
     eigenvalues:
       0.167  0.167  0.167
     eigenvectors (columns):
       1.000  0.000  0.000
       0.000  1.000  0.000
       0.000  0.000  1.000
     occupation matrix ns (before diag.):
       0.167  0.000  0.000
       0.000  0.167  0.000
       0.000  0.000  0.167
     ------------------------ ATOM   50 ------------------------
     Tr[ns( 50)] =   1.00000
     eigenvalues:
       0.167  0.167  0.167
     eigenvectors (columns):
       1.000  0.000  0.000
       0.000  1.000  0.000
       0.000  0.000  1.000
     occupation matrix ns (before diag.):
       0.167  0.000  0.000
       0.000  0.167  0.000
       0.000  0.000  0.167
     ------------------------ ATOM   51 ------------------------
     Tr[ns( 51)] =   1.00000
     eigenvalues:
       0.167  0.167  0.167
     eigenvectors (columns):
       1.000  0.000  0.000
       0.000  1.000  0.000
       0.000  0.000  1.000
     occupation matrix ns (before diag.):
       0.167  0.000  0.000
       0.000  0.167  0.000
       0.000  0.000  0.167
     ------------------------ ATOM   52 ------------------------
     Tr[ns( 52)] =   1.00000
     eigenvalues:
       0.167  0.167  0.167
     eigenvectors (columns):
       1.000  0.000  0.000
       0.000  1.000  0.000
       0.000  0.000  1.000
     occupation matrix ns (before diag.):
       0.167  0.000  0.000
       0.000  0.167  0.000
       0.000  0.000  0.167
     ------------------------ ATOM   53 ------------------------
     Tr[ns( 53)] =   3.00000
     eigenvalues:
       0.500  0.500  0.500
     eigenvectors (columns):
       1.000  0.000  0.000
       0.000  1.000  0.000
       0.000  0.000  1.000
     occupation matrix ns (before diag.):
       0.500  0.000  0.000
       0.000  0.500  0.000
       0.000  0.000  0.500
     ------------------------ ATOM   54 ------------------------
     Tr[ns( 54)] =   3.00000
     eigenvalues:
       0.500  0.500  0.500
     eigenvectors (columns):
       1.000  0.000  0.000
       0.000  1.000  0.000
       0.000  0.000  1.000
     occupation matrix ns (before diag.):
       0.500  0.000  0.000
       0.000  0.500  0.000
       0.000  0.000  0.500
     ------------------------ ATOM   55 ------------------------
     Tr[ns( 55)] =   3.00000
     eigenvalues:
       0.500  0.500  0.500
     eigenvectors (columns):
       1.000  0.000  0.000
       0.000  1.000  0.000
       0.000  0.000  1.000
     occupation matrix ns (before diag.):
       0.500  0.000  0.000
       0.000  0.500  0.000
       0.000  0.000  0.500
     ------------------------ ATOM   56 ------------------------
     Tr[ns( 56)] =   3.00000
     eigenvalues:
       0.500  0.500  0.500
     eigenvectors (columns):
       1.000  0.000  0.000
       0.000  1.000  0.000
       0.000  0.000  1.000
     occupation matrix ns (before diag.):
       0.500  0.000  0.000
       0.000  0.500  0.000
       0.000  0.000  0.500
     ------------------------ ATOM   57 ------------------------
     Tr[ns( 57)] =   1.00000
     eigenvalues:
       0.167  0.167  0.167
     eigenvectors (columns):
       1.000  0.000  0.000
       0.000  1.000  0.000
       0.000  0.000  1.000
     occupation matrix ns (before diag.):
       0.167  0.000  0.000
       0.000  0.167  0.000
       0.000  0.000  0.167
     ------------------------ ATOM   58 ------------------------
     Tr[ns( 58)] =   1.00000
     eigenvalues:
       0.167  0.167  0.167
     eigenvectors (columns):
       1.000  0.000  0.000
       0.000  1.000  0.000
       0.000  0.000  1.000
     occupation matrix ns (before diag.):
       0.167  0.000  0.000
       0.000  0.167  0.000
       0.000  0.000  0.167
     ------------------------ ATOM   59 ------------------------
     Tr[ns( 59)] =   1.00000
     eigenvalues:
       0.167  0.167  0.167
     eigenvectors (columns):
       1.000  0.000  0.000
       0.000  1.000  0.000
       0.000  0.000  1.000
     occupation matrix ns (before diag.):
       0.167  0.000  0.000
       0.000  0.167  0.000
       0.000  0.000  0.167
     ------------------------ ATOM   60 ------------------------
     Tr[ns( 60)] =   1.00000
     eigenvalues:
       0.167  0.167  0.167
     eigenvectors (columns):
       1.000  0.000  0.000
       0.000  1.000  0.000
       0.000  0.000  1.000
     occupation matrix ns (before diag.):
       0.167  0.000  0.000
       0.000  0.167  0.000
       0.000  0.000  0.167
     ------------------------ ATOM   61 ------------------------
     Tr[ns( 61)] =   3.00000
     eigenvalues:
       0.500  0.500  0.500
     eigenvectors (columns):
       1.000  0.000  0.000
       0.000  1.000  0.000
       0.000  0.000  1.000
     occupation matrix ns (before diag.):
       0.500  0.000  0.000
       0.000  0.500  0.000
       0.000  0.000  0.500
     ------------------------ ATOM   62 ------------------------
     Tr[ns( 62)] =   3.00000
     eigenvalues:
       0.500  0.500  0.500
     eigenvectors (columns):
       1.000  0.000  0.000
       0.000  1.000  0.000
       0.000  0.000  1.000
     occupation matrix ns (before diag.):
       0.500  0.000  0.000
       0.000  0.500  0.000
       0.000  0.000  0.500
     ------------------------ ATOM   63 ------------------------
     Tr[ns( 63)] =   3.00000
     eigenvalues:
       0.500  0.500  0.500
     eigenvectors (columns):
       1.000  0.000  0.000
       0.000  1.000  0.000
       0.000  0.000  1.000
     occupation matrix ns (before diag.):
       0.500  0.000  0.000
       0.000  0.500  0.000
       0.000  0.000  0.500
     ------------------------ ATOM   64 ------------------------
     Tr[ns( 64)] =   3.00000
     eigenvalues:
       0.500  0.500  0.500
     eigenvectors (columns):
       1.000  0.000  0.000
       0.000  1.000  0.000
       0.000  0.000  1.000
     occupation matrix ns (before diag.):
       0.500  0.000  0.000
       0.000  0.500  0.000
       0.000  0.000  0.500
     ------------------------ ATOM   65 ------------------------
     Tr[ns( 65)] =   1.00000
     eigenvalues:
       0.167  0.167  0.167
     eigenvectors (columns):
       1.000  0.000  0.000
       0.000  1.000  0.000
       0.000  0.000  1.000
     occupation matrix ns (before diag.):
       0.167  0.000  0.000
       0.000  0.167  0.000
       0.000  0.000  0.167
     ------------------------ ATOM   66 ------------------------
     Tr[ns( 66)] =   1.00000
     eigenvalues:
       0.167  0.167  0.167
     eigenvectors (columns):
       1.000  0.000  0.000
       0.000  1.000  0.000
       0.000  0.000  1.000
     occupation matrix ns (before diag.):
       0.167  0.000  0.000
       0.000  0.167  0.000
       0.000  0.000  0.167
     ------------------------ ATOM   67 ------------------------
     Tr[ns( 67)] =   1.00000
     eigenvalues:
       0.167  0.167  0.167
     eigenvectors (columns):
       1.000  0.000  0.000
       0.000  1.000  0.000
       0.000  0.000  1.000
     occupation matrix ns (before diag.):
       0.167  0.000  0.000
       0.000  0.167  0.000
       0.000  0.000  0.167
     ------------------------ ATOM   68 ------------------------
     Tr[ns( 68)] =   1.00000
     eigenvalues:
       0.167  0.167  0.167
     eigenvectors (columns):
       1.000  0.000  0.000
       0.000  1.000  0.000
       0.000  0.000  1.000
     occupation matrix ns (before diag.):
       0.167  0.000  0.000
       0.000  0.167  0.000
       0.000  0.000  0.167
     ------------------------ ATOM   69 ------------------------
     Tr[ns( 69)] =   3.00000
     eigenvalues:
       0.500  0.500  0.500
     eigenvectors (columns):
       1.000  0.000  0.000
       0.000  1.000  0.000
       0.000  0.000  1.000
     occupation matrix ns (before diag.):
       0.500  0.000  0.000
       0.000  0.500  0.000
       0.000  0.000  0.500
     ------------------------ ATOM   70 ------------------------
     Tr[ns( 70)] =   3.00000
     eigenvalues:
       0.500  0.500  0.500
     eigenvectors (columns):
       1.000  0.000  0.000
       0.000  1.000  0.000
       0.000  0.000  1.000
     occupation matrix ns (before diag.):
       0.500  0.000  0.000
       0.000  0.500  0.000
       0.000  0.000  0.500
     ------------------------ ATOM   71 ------------------------
     Tr[ns( 71)] =   3.00000
     eigenvalues:
       0.500  0.500  0.500
     eigenvectors (columns):
       1.000  0.000  0.000
       0.000  1.000  0.000
       0.000  0.000  1.000
     occupation matrix ns (before diag.):
       0.500  0.000  0.000
       0.000  0.500  0.000
       0.000  0.000  0.500
     ------------------------ ATOM   72 ------------------------
     Tr[ns( 72)] =   3.00000
     eigenvalues:
       0.500  0.500  0.500
     eigenvectors (columns):
       1.000  0.000  0.000
       0.000  1.000  0.000
       0.000  0.000  1.000
     occupation matrix ns (before diag.):
       0.500  0.000  0.000
       0.000  0.500  0.000
       0.000  0.000  0.500
     ------------------------ ATOM   73 ------------------------
     Tr[ns( 73)] =   1.00000
     eigenvalues:
       0.167  0.167  0.167
     eigenvectors (columns):
       1.000  0.000  0.000
       0.000  1.000  0.000
       0.000  0.000  1.000
     occupation matrix ns (before diag.):
       0.167  0.000  0.000
       0.000  0.167  0.000
       0.000  0.000  0.167
     ------------------------ ATOM   74 ------------------------
     Tr[ns( 74)] =   1.00000
     eigenvalues:
       0.167  0.167  0.167
     eigenvectors (columns):
       1.000  0.000  0.000
       0.000  1.000  0.000
       0.000  0.000  1.000
     occupation matrix ns (before diag.):
       0.167  0.000  0.000
       0.000  0.167  0.000
       0.000  0.000  0.167
     ------------------------ ATOM   75 ------------------------
     Tr[ns( 75)] =   1.00000
     eigenvalues:
       0.167  0.167  0.167
     eigenvectors (columns):
       1.000  0.000  0.000
       0.000  1.000  0.000
       0.000  0.000  1.000
     occupation matrix ns (before diag.):
       0.167  0.000  0.000
       0.000  0.167  0.000
       0.000  0.000  0.167
     ------------------------ ATOM   76 ------------------------
     Tr[ns( 76)] =   1.00000
     eigenvalues:
       0.167  0.167  0.167
     eigenvectors (columns):
       1.000  0.000  0.000
       0.000  1.000  0.000
       0.000  0.000  1.000
     occupation matrix ns (before diag.):
       0.167  0.000  0.000
       0.000  0.167  0.000
       0.000  0.000  0.167
     ------------------------ ATOM   77 ------------------------
     Tr[ns( 77)] =   3.00000
     eigenvalues:
       0.500  0.500  0.500
     eigenvectors (columns):
       1.000  0.000  0.000
       0.000  1.000  0.000
       0.000  0.000  1.000
     occupation matrix ns (before diag.):
       0.500  0.000  0.000
       0.000  0.500  0.000
       0.000  0.000  0.500
     ------------------------ ATOM   78 ------------------------
     Tr[ns( 78)] =   3.00000
     eigenvalues:
       0.500  0.500  0.500
     eigenvectors (columns):
       1.000  0.000  0.000
       0.000  1.000  0.000
       0.000  0.000  1.000
     occupation matrix ns (before diag.):
       0.500  0.000  0.000
       0.000  0.500  0.000
       0.000  0.000  0.500
     ------------------------ ATOM   79 ------------------------
     Tr[ns( 79)] =   3.00000
     eigenvalues:
       0.500  0.500  0.500
     eigenvectors (columns):
       1.000  0.000  0.000
       0.000  1.000  0.000
       0.000  0.000  1.000
     occupation matrix ns (before diag.):
       0.500  0.000  0.000
       0.000  0.500  0.000
       0.000  0.000  0.500
     ------------------------ ATOM   80 ------------------------
     Tr[ns( 80)] =   3.00000
     eigenvalues:
       0.500  0.500  0.500
     eigenvectors (columns):
       1.000  0.000  0.000
       0.000  1.000  0.000
       0.000  0.000  1.000
     occupation matrix ns (before diag.):
       0.500  0.000  0.000
       0.000  0.500  0.000
       0.000  0.000  0.500
     ------------------------ ATOM   81 ------------------------
     Tr[ns( 81)] =   1.00000
     eigenvalues:
       0.167  0.167  0.167
     eigenvectors (columns):
       1.000  0.000  0.000
       0.000  1.000  0.000
       0.000  0.000  1.000
     occupation matrix ns (before diag.):
       0.167  0.000  0.000
       0.000  0.167  0.000
       0.000  0.000  0.167
     ------------------------ ATOM   82 ------------------------
     Tr[ns( 82)] =   1.00000
     eigenvalues:
       0.167  0.167  0.167
     eigenvectors (columns):
       1.000  0.000  0.000
       0.000  1.000  0.000
       0.000  0.000  1.000
     occupation matrix ns (before diag.):
       0.167  0.000  0.000
       0.000  0.167  0.000
       0.000  0.000  0.167
     ------------------------ ATOM   83 ------------------------
     Tr[ns( 83)] =   1.00000
     eigenvalues:
       0.167  0.167  0.167
     eigenvectors (columns):
       1.000  0.000  0.000
       0.000  1.000  0.000
       0.000  0.000  1.000
     occupation matrix ns (before diag.):
       0.167  0.000  0.000
       0.000  0.167  0.000
       0.000  0.000  0.167
     ------------------------ ATOM   84 ------------------------
     Tr[ns( 84)] =   1.00000
     eigenvalues:
       0.167  0.167  0.167
     eigenvectors (columns):
       1.000  0.000  0.000
       0.000  1.000  0.000
       0.000  0.000  1.000
     occupation matrix ns (before diag.):
       0.167  0.000  0.000
       0.000  0.167  0.000
       0.000  0.000  0.167
     ------------------------ ATOM   85 ------------------------
     Tr[ns( 85)] =   3.00000
     eigenvalues:
       0.500  0.500  0.500
     eigenvectors (columns):
       1.000  0.000  0.000
       0.000  1.000  0.000
       0.000  0.000  1.000
     occupation matrix ns (before diag.):
       0.500  0.000  0.000
       0.000  0.500  0.000
       0.000  0.000  0.500
     ------------------------ ATOM   86 ------------------------
     Tr[ns( 86)] =   3.00000
     eigenvalues:
       0.500  0.500  0.500
     eigenvectors (columns):
       1.000  0.000  0.000
       0.000  1.000  0.000
       0.000  0.000  1.000
     occupation matrix ns (before diag.):
       0.500  0.000  0.000
       0.000  0.500  0.000
       0.000  0.000  0.500
     ------------------------ ATOM   87 ------------------------
     Tr[ns( 87)] =   3.00000
     eigenvalues:
       0.500  0.500  0.500
     eigenvectors (columns):
       1.000  0.000  0.000
       0.000  1.000  0.000
       0.000  0.000  1.000
     occupation matrix ns (before diag.):
       0.500  0.000  0.000
       0.000  0.500  0.000
       0.000  0.000  0.500
     ------------------------ ATOM   88 ------------------------
     Tr[ns( 88)] =   3.00000
     eigenvalues:
       0.500  0.500  0.500
     eigenvectors (columns):
       1.000  0.000  0.000
       0.000  1.000  0.000
       0.000  0.000  1.000
     occupation matrix ns (before diag.):
       0.500  0.000  0.000
       0.000  0.500  0.000
       0.000  0.000  0.500
     ------------------------ ATOM   89 ------------------------
     Tr[ns( 89)] =   1.00000
     eigenvalues:
       0.167  0.167  0.167
     eigenvectors (columns):
       1.000  0.000  0.000
       0.000  1.000  0.000
       0.000  0.000  1.000
     occupation matrix ns (before diag.):
       0.167  0.000  0.000
       0.000  0.167  0.000
       0.000  0.000  0.167
     ------------------------ ATOM   90 ------------------------
     Tr[ns( 90)] =   1.00000
     eigenvalues:
       0.167  0.167  0.167
     eigenvectors (columns):
       1.000  0.000  0.000
       0.000  1.000  0.000
       0.000  0.000  1.000
     occupation matrix ns (before diag.):
       0.167  0.000  0.000
       0.000  0.167  0.000
       0.000  0.000  0.167
     ------------------------ ATOM   91 ------------------------
     Tr[ns( 91)] =   1.00000
     eigenvalues:
       0.167  0.167  0.167
     eigenvectors (columns):
       1.000  0.000  0.000
       0.000  1.000  0.000
       0.000  0.000  1.000
     occupation matrix ns (before diag.):
       0.167  0.000  0.000
       0.000  0.167  0.000
       0.000  0.000  0.167
     ------------------------ ATOM   92 ------------------------
     Tr[ns( 92)] =   1.00000
     eigenvalues:
       0.167  0.167  0.167
     eigenvectors (columns):
       1.000  0.000  0.000
       0.000  1.000  0.000
       0.000  0.000  1.000
     occupation matrix ns (before diag.):
       0.167  0.000  0.000
       0.000  0.167  0.000
       0.000  0.000  0.167
     ------------------------ ATOM   93 ------------------------
     Tr[ns( 93)] =   3.00000
     eigenvalues:
       0.500  0.500  0.500
     eigenvectors (columns):
       1.000  0.000  0.000
       0.000  1.000  0.000
       0.000  0.000  1.000
     occupation matrix ns (before diag.):
       0.500  0.000  0.000
       0.000  0.500  0.000
       0.000  0.000  0.500
     ------------------------ ATOM   94 ------------------------
     Tr[ns( 94)] =   3.00000
     eigenvalues:
       0.500  0.500  0.500
     eigenvectors (columns):
       1.000  0.000  0.000
       0.000  1.000  0.000
       0.000  0.000  1.000
     occupation matrix ns (before diag.):
       0.500  0.000  0.000
       0.000  0.500  0.000
       0.000  0.000  0.500
     ------------------------ ATOM   95 ------------------------
     Tr[ns( 95)] =   3.00000
     eigenvalues:
       0.500  0.500  0.500
     eigenvectors (columns):
       1.000  0.000  0.000
       0.000  1.000  0.000
       0.000  0.000  1.000
     occupation matrix ns (before diag.):
       0.500  0.000  0.000
       0.000  0.500  0.000
       0.000  0.000  0.500
     ------------------------ ATOM   96 ------------------------
     Tr[ns( 96)] =   3.00000
     eigenvalues:
       0.500  0.500  0.500
     eigenvectors (columns):
       1.000  0.000  0.000
       0.000  1.000  0.000
       0.000  0.000  1.000
     occupation matrix ns (before diag.):
       0.500  0.000  0.000
       0.000  0.500  0.000
       0.000  0.000  0.500
     ------------------------ ATOM   97 ------------------------
     Tr[ns( 97)] =   1.00000
     eigenvalues:
       0.167  0.167  0.167
     eigenvectors (columns):
       1.000  0.000  0.000
       0.000  1.000  0.000
       0.000  0.000  1.000
     occupation matrix ns (before diag.):
       0.167  0.000  0.000
       0.000  0.167  0.000
       0.000  0.000  0.167
     ------------------------ ATOM   98 ------------------------
     Tr[ns( 98)] =   1.00000
     eigenvalues:
       0.167  0.167  0.167
     eigenvectors (columns):
       1.000  0.000  0.000
       0.000  1.000  0.000
       0.000  0.000  1.000
     occupation matrix ns (before diag.):
       0.167  0.000  0.000
       0.000  0.167  0.000
       0.000  0.000  0.167
     ------------------------ ATOM   99 ------------------------
     Tr[ns( 99)] =   1.00000
     eigenvalues:
       0.167  0.167  0.167
     eigenvectors (columns):
       1.000  0.000  0.000
       0.000  1.000  0.000
       0.000  0.000  1.000
     occupation matrix ns (before diag.):
       0.167  0.000  0.000
       0.000  0.167  0.000
       0.000  0.000  0.167
     ------------------------ ATOM  100 ------------------------
     Tr[ns(100)] =   1.00000
     eigenvalues:
       0.167  0.167  0.167
     eigenvectors (columns):
       1.000  0.000  0.000
       0.000  1.000  0.000
       0.000  0.000  1.000
     occupation matrix ns (before diag.):
       0.167  0.000  0.000
       0.000  0.167  0.000
       0.000  0.000  0.167
     ------------------------ ATOM  101 ------------------------
     Tr[ns(101)] =   3.00000
     eigenvalues:
       0.500  0.500  0.500
     eigenvectors (columns):
       1.000  0.000  0.000
       0.000  1.000  0.000
       0.000  0.000  1.000
     occupation matrix ns (before diag.):
       0.500  0.000  0.000
       0.000  0.500  0.000
       0.000  0.000  0.500
     ------------------------ ATOM  102 ------------------------
     Tr[ns(102)] =   3.00000
     eigenvalues:
       0.500  0.500  0.500
     eigenvectors (columns):
       1.000  0.000  0.000
       0.000  1.000  0.000
       0.000  0.000  1.000
     occupation matrix ns (before diag.):
       0.500  0.000  0.000
       0.000  0.500  0.000
       0.000  0.000  0.500
     ------------------------ ATOM  103 ------------------------
     Tr[ns(103)] =   3.00000
     eigenvalues:
       0.500  0.500  0.500
     eigenvectors (columns):
       1.000  0.000  0.000
       0.000  1.000  0.000
       0.000  0.000  1.000
     occupation matrix ns (before diag.):
       0.500  0.000  0.000
       0.000  0.500  0.000
       0.000  0.000  0.500
     ------------------------ ATOM  104 ------------------------
     Tr[ns(104)] =   3.00000
     eigenvalues:
       0.500  0.500  0.500
     eigenvectors (columns):
       1.000  0.000  0.000
       0.000  1.000  0.000
       0.000  0.000  1.000
     occupation matrix ns (before diag.):
       0.500  0.000  0.000
       0.000  0.500  0.000
       0.000  0.000  0.500
     ------------------------ ATOM  105 ------------------------
     Tr[ns(105)] =   1.00000
     eigenvalues:
       0.167  0.167  0.167
     eigenvectors (columns):
       1.000  0.000  0.000
       0.000  1.000  0.000
       0.000  0.000  1.000
     occupation matrix ns (before diag.):
       0.167  0.000  0.000
       0.000  0.167  0.000
       0.000  0.000  0.167
     ------------------------ ATOM  106 ------------------------
     Tr[ns(106)] =   1.00000
     eigenvalues:
       0.167  0.167  0.167
     eigenvectors (columns):
       1.000  0.000  0.000
       0.000  1.000  0.000
       0.000  0.000  1.000
     occupation matrix ns (before diag.):
       0.167  0.000  0.000
       0.000  0.167  0.000
       0.000  0.000  0.167
     ------------------------ ATOM  107 ------------------------
     Tr[ns(107)] =   1.00000
     eigenvalues:
       0.167  0.167  0.167
     eigenvectors (columns):
       1.000  0.000  0.000
       0.000  1.000  0.000
       0.000  0.000  1.000
     occupation matrix ns (before diag.):
       0.167  0.000  0.000
       0.000  0.167  0.000
       0.000  0.000  0.167
     ------------------------ ATOM  108 ------------------------
     Tr[ns(108)] =   1.00000
     eigenvalues:
       0.167  0.167  0.167
     eigenvectors (columns):
       1.000  0.000  0.000
       0.000  1.000  0.000
       0.000  0.000  1.000
     occupation matrix ns (before diag.):
       0.167  0.000  0.000
       0.000  0.167  0.000
       0.000  0.000  0.167
     ------------------------ ATOM  109 ------------------------
     Tr[ns(109)] =   3.00000
     eigenvalues:
       0.500  0.500  0.500
     eigenvectors (columns):
       1.000  0.000  0.000
       0.000  1.000  0.000
       0.000  0.000  1.000
     occupation matrix ns (before diag.):
       0.500  0.000  0.000
       0.000  0.500  0.000
       0.000  0.000  0.500
     ------------------------ ATOM  110 ------------------------
     Tr[ns(110)] =   3.00000
     eigenvalues:
       0.500  0.500  0.500
     eigenvectors (columns):
       1.000  0.000  0.000
       0.000  1.000  0.000
       0.000  0.000  1.000
     occupation matrix ns (before diag.):
       0.500  0.000  0.000
       0.000  0.500  0.000
       0.000  0.000  0.500
     ------------------------ ATOM  111 ------------------------
     Tr[ns(111)] =   3.00000
     eigenvalues:
       0.500  0.500  0.500
     eigenvectors (columns):
       1.000  0.000  0.000
       0.000  1.000  0.000
       0.000  0.000  1.000
     occupation matrix ns (before diag.):
       0.500  0.000  0.000
       0.000  0.500  0.000
       0.000  0.000  0.500
     ------------------------ ATOM  112 ------------------------
     Tr[ns(112)] =   3.00000
     eigenvalues:
       0.500  0.500  0.500
     eigenvectors (columns):
       1.000  0.000  0.000
       0.000  1.000  0.000
       0.000  0.000  1.000
     occupation matrix ns (before diag.):
       0.500  0.000  0.000
       0.000  0.500  0.000
       0.000  0.000  0.500
     ------------------------ ATOM  113 ------------------------
     Tr[ns(113)] =   1.00000
     eigenvalues:
       0.167  0.167  0.167
     eigenvectors (columns):
       1.000  0.000  0.000
       0.000  1.000  0.000
       0.000  0.000  1.000
     occupation matrix ns (before diag.):
       0.167  0.000  0.000
       0.000  0.167  0.000
       0.000  0.000  0.167
     ------------------------ ATOM  114 ------------------------
     Tr[ns(114)] =   1.00000
     eigenvalues:
       0.167  0.167  0.167
     eigenvectors (columns):
       1.000  0.000  0.000
       0.000  1.000  0.000
       0.000  0.000  1.000
     occupation matrix ns (before diag.):
       0.167  0.000  0.000
       0.000  0.167  0.000
       0.000  0.000  0.167
     ------------------------ ATOM  115 ------------------------
     Tr[ns(115)] =   1.00000
     eigenvalues:
       0.167  0.167  0.167
     eigenvectors (columns):
       1.000  0.000  0.000
       0.000  1.000  0.000
       0.000  0.000  1.000
     occupation matrix ns (before diag.):
       0.167  0.000  0.000
       0.000  0.167  0.000
       0.000  0.000  0.167
     ------------------------ ATOM  116 ------------------------
     Tr[ns(116)] =   1.00000
     eigenvalues:
       0.167  0.167  0.167
     eigenvectors (columns):
       1.000  0.000  0.000
       0.000  1.000  0.000
       0.000  0.000  1.000
     occupation matrix ns (before diag.):
       0.167  0.000  0.000
       0.000  0.167  0.000
       0.000  0.000  0.167
     ------------------------ ATOM  117 ------------------------
     Tr[ns(117)] =   3.00000
     eigenvalues:
       0.500  0.500  0.500
     eigenvectors (columns):
       1.000  0.000  0.000
       0.000  1.000  0.000
       0.000  0.000  1.000
     occupation matrix ns (before diag.):
       0.500  0.000  0.000
       0.000  0.500  0.000
       0.000  0.000  0.500
     ------------------------ ATOM  118 ------------------------
     Tr[ns(118)] =   3.00000
     eigenvalues:
       0.500  0.500  0.500
     eigenvectors (columns):
       1.000  0.000  0.000
       0.000  1.000  0.000
       0.000  0.000  1.000
     occupation matrix ns (before diag.):
       0.500  0.000  0.000
       0.000  0.500  0.000
       0.000  0.000  0.500
     ------------------------ ATOM  119 ------------------------
     Tr[ns(119)] =   3.00000
     eigenvalues:
       0.500  0.500  0.500
     eigenvectors (columns):
       1.000  0.000  0.000
       0.000  1.000  0.000
       0.000  0.000  1.000
     occupation matrix ns (before diag.):
       0.500  0.000  0.000
       0.000  0.500  0.000
       0.000  0.000  0.500
     ------------------------ ATOM  120 ------------------------
     Tr[ns(120)] =   3.00000
     eigenvalues:
       0.500  0.500  0.500
     eigenvectors (columns):
       1.000  0.000  0.000
       0.000  1.000  0.000
       0.000  0.000  1.000
     occupation matrix ns (before diag.):
       0.500  0.000  0.000
       0.000  0.500  0.000
       0.000  0.000  0.500
     ------------------------ ATOM  121 ------------------------
     Tr[ns(121)] =   1.00000
     eigenvalues:
       0.167  0.167  0.167
     eigenvectors (columns):
       1.000  0.000  0.000
       0.000  1.000  0.000
       0.000  0.000  1.000
     occupation matrix ns (before diag.):
       0.167  0.000  0.000
       0.000  0.167  0.000
       0.000  0.000  0.167
     ------------------------ ATOM  122 ------------------------
     Tr[ns(122)] =   1.00000
     eigenvalues:
       0.167  0.167  0.167
     eigenvectors (columns):
       1.000  0.000  0.000
       0.000  1.000  0.000
       0.000  0.000  1.000
     occupation matrix ns (before diag.):
       0.167  0.000  0.000
       0.000  0.167  0.000
       0.000  0.000  0.167
     ------------------------ ATOM  123 ------------------------
     Tr[ns(123)] =   1.00000
     eigenvalues:
       0.167  0.167  0.167
     eigenvectors (columns):
       1.000  0.000  0.000
       0.000  1.000  0.000
       0.000  0.000  1.000
     occupation matrix ns (before diag.):
       0.167  0.000  0.000
       0.000  0.167  0.000
       0.000  0.000  0.167
     ------------------------ ATOM  124 ------------------------
     Tr[ns(124)] =   1.00000
     eigenvalues:
       0.167  0.167  0.167
     eigenvectors (columns):
       1.000  0.000  0.000
       0.000  1.000  0.000
       0.000  0.000  1.000
     occupation matrix ns (before diag.):
       0.167  0.000  0.000
       0.000  0.167  0.000
       0.000  0.000  0.167
     ------------------------ ATOM  125 ------------------------
     Tr[ns(125)] =   3.00000
     eigenvalues:
       0.500  0.500  0.500
     eigenvectors (columns):
       1.000  0.000  0.000
       0.000  1.000  0.000
       0.000  0.000  1.000
     occupation matrix ns (before diag.):
       0.500  0.000  0.000
       0.000  0.500  0.000
       0.000  0.000  0.500
     ------------------------ ATOM  126 ------------------------
     Tr[ns(126)] =   3.00000
     eigenvalues:
       0.500  0.500  0.500
     eigenvectors (columns):
       1.000  0.000  0.000
       0.000  1.000  0.000
       0.000  0.000  1.000
     occupation matrix ns (before diag.):
       0.500  0.000  0.000
       0.000  0.500  0.000
       0.000  0.000  0.500
     ------------------------ ATOM  127 ------------------------
     Tr[ns(127)] =   3.00000
     eigenvalues:
       0.500  0.500  0.500
     eigenvectors (columns):
       1.000  0.000  0.000
       0.000  1.000  0.000
       0.000  0.000  1.000
     occupation matrix ns (before diag.):
       0.500  0.000  0.000
       0.000  0.500  0.000
       0.000  0.000  0.500
     ------------------------ ATOM  128 ------------------------
     Tr[ns(128)] =   3.00000
     eigenvalues:
       0.500  0.500  0.500
     eigenvectors (columns):
       1.000  0.000  0.000
       0.000  1.000  0.000
       0.000  0.000  1.000
     occupation matrix ns (before diag.):
       0.500  0.000  0.000
       0.000  0.500  0.000
       0.000  0.000  0.500
     ------------------------ ATOM  129 ------------------------
     Tr[ns(129)] =   1.00000
     eigenvalues:
       0.167  0.167  0.167
     eigenvectors (columns):
       1.000  0.000  0.000
       0.000  1.000  0.000
       0.000  0.000  1.000
     occupation matrix ns (before diag.):
       0.167  0.000  0.000
       0.000  0.167  0.000
       0.000  0.000  0.167
     ------------------------ ATOM  130 ------------------------
     Tr[ns(130)] =   1.00000
     eigenvalues:
       0.167  0.167  0.167
     eigenvectors (columns):
       1.000  0.000  0.000
       0.000  1.000  0.000
       0.000  0.000  1.000
     occupation matrix ns (before diag.):
       0.167  0.000  0.000
       0.000  0.167  0.000
       0.000  0.000  0.167
     ------------------------ ATOM  131 ------------------------
     Tr[ns(131)] =   1.00000
     eigenvalues:
       0.167  0.167  0.167
     eigenvectors (columns):
       1.000  0.000  0.000
       0.000  1.000  0.000
       0.000  0.000  1.000
     occupation matrix ns (before diag.):
       0.167  0.000  0.000
       0.000  0.167  0.000
       0.000  0.000  0.167
     ------------------------ ATOM  132 ------------------------
     Tr[ns(132)] =   1.00000
     eigenvalues:
       0.167  0.167  0.167
     eigenvectors (columns):
       1.000  0.000  0.000
       0.000  1.000  0.000
       0.000  0.000  1.000
     occupation matrix ns (before diag.):
       0.167  0.000  0.000
       0.000  0.167  0.000
       0.000  0.000  0.167
     ------------------------ ATOM  133 ------------------------
     Tr[ns(133)] =   3.00000
     eigenvalues:
       0.500  0.500  0.500
     eigenvectors (columns):
       1.000  0.000  0.000
       0.000  1.000  0.000
       0.000  0.000  1.000
     occupation matrix ns (before diag.):
       0.500  0.000  0.000
       0.000  0.500  0.000
       0.000  0.000  0.500
     ------------------------ ATOM  134 ------------------------
     Tr[ns(134)] =   3.00000
     eigenvalues:
       0.500  0.500  0.500
     eigenvectors (columns):
       1.000  0.000  0.000
       0.000  1.000  0.000
       0.000  0.000  1.000
     occupation matrix ns (before diag.):
       0.500  0.000  0.000
       0.000  0.500  0.000
       0.000  0.000  0.500
     ------------------------ ATOM  135 ------------------------
     Tr[ns(135)] =   3.00000
     eigenvalues:
       0.500  0.500  0.500
     eigenvectors (columns):
       1.000  0.000  0.000
       0.000  1.000  0.000
       0.000  0.000  1.000
     occupation matrix ns (before diag.):
       0.500  0.000  0.000
       0.000  0.500  0.000
       0.000  0.000  0.500
     ------------------------ ATOM  136 ------------------------
     Tr[ns(136)] =   3.00000
     eigenvalues:
       0.500  0.500  0.500
     eigenvectors (columns):
       1.000  0.000  0.000
       0.000  1.000  0.000
       0.000  0.000  1.000
     occupation matrix ns (before diag.):
       0.500  0.000  0.000
       0.000  0.500  0.000
       0.000  0.000  0.500
     ------------------------ ATOM  137 ------------------------
     Tr[ns(137)] =   1.00000
     eigenvalues:
       0.167  0.167  0.167
     eigenvectors (columns):
       1.000  0.000  0.000
       0.000  1.000  0.000
       0.000  0.000  1.000
     occupation matrix ns (before diag.):
       0.167  0.000  0.000
       0.000  0.167  0.000
       0.000  0.000  0.167
     ------------------------ ATOM  138 ------------------------
     Tr[ns(138)] =   1.00000
     eigenvalues:
       0.167  0.167  0.167
     eigenvectors (columns):
       1.000  0.000  0.000
       0.000  1.000  0.000
       0.000  0.000  1.000
     occupation matrix ns (before diag.):
       0.167  0.000  0.000
       0.000  0.167  0.000
       0.000  0.000  0.167
     ------------------------ ATOM  139 ------------------------
     Tr[ns(139)] =   1.00000
     eigenvalues:
       0.167  0.167  0.167
     eigenvectors (columns):
       1.000  0.000  0.000
       0.000  1.000  0.000
       0.000  0.000  1.000
     occupation matrix ns (before diag.):
       0.167  0.000  0.000
       0.000  0.167  0.000
       0.000  0.000  0.167
     ------------------------ ATOM  140 ------------------------
     Tr[ns(140)] =   1.00000
     eigenvalues:
       0.167  0.167  0.167
     eigenvectors (columns):
       1.000  0.000  0.000
       0.000  1.000  0.000
       0.000  0.000  1.000
     occupation matrix ns (before diag.):
       0.167  0.000  0.000
       0.000  0.167  0.000
       0.000  0.000  0.167
     ------------------------ ATOM  141 ------------------------
     Tr[ns(141)] =   3.00000
     eigenvalues:
       0.500  0.500  0.500
     eigenvectors (columns):
       1.000  0.000  0.000
       0.000  1.000  0.000
       0.000  0.000  1.000
     occupation matrix ns (before diag.):
       0.500  0.000  0.000
       0.000  0.500  0.000
       0.000  0.000  0.500
     ------------------------ ATOM  142 ------------------------
     Tr[ns(142)] =   3.00000
     eigenvalues:
       0.500  0.500  0.500
     eigenvectors (columns):
       1.000  0.000  0.000
       0.000  1.000  0.000
       0.000  0.000  1.000
     occupation matrix ns (before diag.):
       0.500  0.000  0.000
       0.000  0.500  0.000
       0.000  0.000  0.500
     ------------------------ ATOM  143 ------------------------
     Tr[ns(143)] =   3.00000
     eigenvalues:
       0.500  0.500  0.500
     eigenvectors (columns):
       1.000  0.000  0.000
       0.000  1.000  0.000
       0.000  0.000  1.000
     occupation matrix ns (before diag.):
       0.500  0.000  0.000
       0.000  0.500  0.000
       0.000  0.000  0.500
     ------------------------ ATOM  144 ------------------------
     Tr[ns(144)] =   3.00000
     eigenvalues:
       0.500  0.500  0.500
     eigenvectors (columns):
       1.000  0.000  0.000
       0.000  1.000  0.000
       0.000  0.000  1.000
     occupation matrix ns (before diag.):
       0.500  0.000  0.000
       0.000  0.500  0.000
       0.000  0.000  0.500
     ------------------------ ATOM  145 ------------------------
     Tr[ns(145)] =   1.00000
     eigenvalues:
       0.167  0.167  0.167
     eigenvectors (columns):
       1.000  0.000  0.000
       0.000  1.000  0.000
       0.000  0.000  1.000
     occupation matrix ns (before diag.):
       0.167  0.000  0.000
       0.000  0.167  0.000
       0.000  0.000  0.167
     ------------------------ ATOM  146 ------------------------
     Tr[ns(146)] =   1.00000
     eigenvalues:
       0.167  0.167  0.167
     eigenvectors (columns):
       1.000  0.000  0.000
       0.000  1.000  0.000
       0.000  0.000  1.000
     occupation matrix ns (before diag.):
       0.167  0.000  0.000
       0.000  0.167  0.000
       0.000  0.000  0.167
     ------------------------ ATOM  147 ------------------------
     Tr[ns(147)] =   1.00000
     eigenvalues:
       0.167  0.167  0.167
     eigenvectors (columns):
       1.000  0.000  0.000
       0.000  1.000  0.000
       0.000  0.000  1.000
     occupation matrix ns (before diag.):
       0.167  0.000  0.000
       0.000  0.167  0.000
       0.000  0.000  0.167
     ------------------------ ATOM  148 ------------------------
     Tr[ns(148)] =   1.00000
     eigenvalues:
       0.167  0.167  0.167
     eigenvectors (columns):
       1.000  0.000  0.000
       0.000  1.000  0.000
       0.000  0.000  1.000
     occupation matrix ns (before diag.):
       0.167  0.000  0.000
       0.000  0.167  0.000
       0.000  0.000  0.167
     ------------------------ ATOM  149 ------------------------
     Tr[ns(149)] =   3.00000
     eigenvalues:
       0.500  0.500  0.500
     eigenvectors (columns):
       1.000  0.000  0.000
       0.000  1.000  0.000
       0.000  0.000  1.000
     occupation matrix ns (before diag.):
       0.500  0.000  0.000
       0.000  0.500  0.000
       0.000  0.000  0.500
     ------------------------ ATOM  150 ------------------------
     Tr[ns(150)] =   3.00000
     eigenvalues:
       0.500  0.500  0.500
     eigenvectors (columns):
       1.000  0.000  0.000
       0.000  1.000  0.000
       0.000  0.000  1.000
     occupation matrix ns (before diag.):
       0.500  0.000  0.000
       0.000  0.500  0.000
       0.000  0.000  0.500
     ------------------------ ATOM  151 ------------------------
     Tr[ns(151)] =   3.00000
     eigenvalues:
       0.500  0.500  0.500
     eigenvectors (columns):
       1.000  0.000  0.000
       0.000  1.000  0.000
       0.000  0.000  1.000
     occupation matrix ns (before diag.):
       0.500  0.000  0.000
       0.000  0.500  0.000
       0.000  0.000  0.500
     ------------------------ ATOM  152 ------------------------
[...]
   -20.4068 -20.4067 -20.4066 -20.4066 -20.4064 -20.4064 -20.4061 -20.4060
   -20.4059 -20.4058 -20.4056 -20.4056 -20.4055 -20.4055 -20.4054 -20.4053
   -20.4045 -20.4043 -20.4040 -20.4039 -20.4038 -20.4035 -20.4030 -20.4026
   -20.4024 -20.4021 -20.4018 -20.4018 -20.4017 -20.4015 -20.4014 -20.4012
   -20.4011 -20.4009 -20.4009 -20.4007 -20.4003 -20.4002 -20.4000 -20.3999
   -20.3999 -20.3997 -20.3996 -20.3995 -20.3994 -20.3993 -20.3992 -20.3990
   -20.3988 -20.3987 -20.3985 -20.3985 -20.3985 -20.3982 -20.3978 -20.3977
   -20.3977 -20.3976 -20.3972 -20.3969 -20.3968 -20.3968 -20.3967 -20.3966
   -20.3966 -20.3965 -20.3964 -20.3961 -20.3959 -20.3957 -20.3955 -20.3955
   -20.3951 -20.3946 -20.3946 -20.3943 -20.3937 -20.3936 -20.3936 -20.3936
   -20.3934 -20.3933 -20.3933 -20.3929 -20.3927 -20.3926 -20.3923 -20.3922
   -20.3922 -20.3919 -20.3917 -20.3914 -20.3914 -20.3911 -20.3910 -20.3909
   -20.3909 -20.3908 -20.3908 -20.3908 -20.3904 -20.3904 -20.3903 -20.3903
   -20.3898 -20.3897 -20.3896 -20.3894 -20.3892 -20.3890 -20.3889 -20.3888
   -20.3883 -20.3882 -20.3882 -20.3882 -20.3881 -20.3879 -20.3879 -20.3878
   -20.3877 -20.3876 -20.3874 -20.3873 -20.3873 -20.3872 -20.3872 -20.3870
   -20.3868 -20.3868 -20.3867 -20.3866 -20.3865 -20.3864 -20.3853 -20.3851
   -20.3849 -20.3849 -20.3847 -20.3847 -20.3843 -20.3841 -20.3840 -20.3833
   -20.3829 -20.3828 -20.3827 -20.3818 -20.3815 -20.3815 -20.3809 -20.3809
   -20.3807 -20.3805 -20.3801 -20.3795 -20.3793 -20.3791 -20.3791 -20.3787
   -20.3785 -20.3783 -20.3782 -20.3777 -20.3775 -20.3774 -20.3774 -20.3771
   -20.3766 -20.3759 -20.3758 -20.3753 -20.3749 -20.3747 -20.3744 -20.3741
   -20.3739 -20.3737 -20.3736 -20.3729 -20.3729 -20.3727 -20.3716 -20.3714
   -20.3712 -20.3697 -20.3694 -20.3691 -20.3679 -20.3677 -20.3669 -20.3661
   -20.3656 -20.3652 -20.3651 -20.3648 -20.3632 -20.3628 -20.3616 -20.3583
   -20.3568 -20.3551 -20.3476 -20.3424  -7.3637  -7.3573  -7.3522  -7.3515
    -7.3494  -7.3475  -7.3463  -7.3451  -7.3441  -7.3436  -7.3426  -7.3417
    -7.3414  -7.3399  -7.3395  -7.3381  -7.3371  -7.3363  -7.3345  -7.3339
    -7.3323  -7.3302  -7.3289  -7.3278  -7.3268  -7.3265  -7.3241  -7.3230
    -7.3224  -7.3220  -7.3206  -7.3201  -7.3192  -7.3189  -7.3164  -7.3157
    -7.3151  -7.3132  -7.3122  -7.3114  -7.3110  -7.3096  -7.3084  -7.3078
    -7.3064  -7.3055  -7.3036  -7.3029  -7.3020  -7.2984  -7.2970  -7.2946
    -7.2927  -7.2919  -7.2909  -7.2903  -7.2886  -7.2879  -7.2874  -7.2870
    -7.2855  -7.2846  -7.2838  -7.2831  -7.2818  -7.2791  -7.2783  -7.2780
    -7.2768  -7.2756  -7.2754  -7.2742  -7.2737  -7.2728  -7.2725  -7.2709
    -7.2704  -7.2702  -7.2694  -7.2685  -7.2676  -7.2669  -7.2668  -7.2660
    -7.2658  -7.2648  -7.2645  -7.2638  -7.2627  -7.2621  -7.2617  -7.2611
    -7.2601  -7.2594  -7.2593  -7.2588  -7.2585  -7.2585  -7.2581  -7.2577
    -7.2567  -7.2561  -7.2558  -7.2550  -7.2549  -7.2548  -7.2536  -7.2534
    -7.2531  -7.2526  -7.2521  -7.2515  -7.2512  -7.2508  -7.2504  -7.2502
    -7.2496  -7.2485  -7.2480  -7.2475  -7.2473  -7.2465  -7.2453  -7.2449
    -7.2448  -7.2440  -7.2434  -7.2431  -7.2427  -7.2423  -7.2420  -7.2414
    -7.2405  -7.2402  -7.2397  -7.2392  -7.2385  -7.2381  -7.2379  -7.2377
    -7.2373  -7.2366  -7.2356  -7.2354  -7.2350  -7.2347  -7.2345  -7.2343
    -7.2338  -7.2334  -7.2326  -7.2320  -7.2315  -7.2313  -7.2302  -7.2301
    -7.2297  -7.2286  -7.2285  -7.2283  -7.2281  -7.2275  -7.2271  -7.2269
    -7.2264  -7.2256  -7.2252  -7.2249  -7.2247  -7.2244  -7.2240  -7.2239
    -7.2231  -7.2230  -7.2224  -7.2218  -7.2216  -7.2214  -7.2212  -7.2205
    -7.2203  -7.2201  -7.2196  -7.2193  -7.2186  -7.2184  -7.2179  -7.2172
    -7.2169  -7.2167  -7.2161  -7.2158  -7.2156  -7.2154  -7.2149  -7.2141
    -7.2139  -7.2137  -7.2133  -7.2130  -7.2129  -7.2125  -7.2122  -7.2119
    -7.2116  -7.2113  -7.2106  -7.2104  -7.2100  -7.2096  -7.2091  -7.2088
    -7.2087  -7.2083  -7.2079  -7.2074  -7.2070  -7.2068  -7.2066  -7.2061
    -7.2059  -7.2056  -7.2055  -7.2055  -7.2049  -7.2045  -7.2038  -7.2034
    -7.2030  -7.2027  -7.2021  -7.2021  -7.2021  -7.2016  -7.2011  -7.2007
    -7.1998  -7.1996  -7.1995  -7.1993  -7.1986  -7.1983  -7.1977  -7.1976
    -7.1974  -7.1968  -7.1966  -7.1961  -7.1959  -7.1956  -7.1953  -7.1952
    -7.1950  -7.1940  -7.1936  -7.1933  -7.1931  -7.1928  -7.1924  -7.1920
    -7.1918  -7.1914  -7.1913  -7.1908  -7.1903  -7.1899  -7.1897  -7.1893
    -7.1893  -7.1885  -7.1883  -7.1878  -7.1875  -7.1873  -7.1869  -7.1868
    -7.1862  -7.1857  -7.1851  -7.1847  -7.1845  -7.1837  -7.1831  -7.1830
    -7.1827  -7.1824  -7.1820  -7.1818  -7.1811  -7.1810  -7.1805  -7.1803
    -7.1800  -7.1796  -7.1792  -7.1790  -7.1789  -7.1785  -7.1785  -7.1778
    -7.1774  -7.1771  -7.1769  -7.1766  -7.1762  -7.1760  -7.1754  -7.1753
    -7.1749  -7.1746  -7.1740  -7.1738  -7.1734  -7.1728  -7.1726  -7.1723
    -7.1721  -7.1719  -7.1711  -7.1707  -7.1706  -7.1703  -7.1697  -7.1693
    -7.1693  -7.1688  -7.1680  -7.1679  -7.1678  -7.1671  -7.1670  -7.1667
    -7.1660  -7.1654  -7.1653  -7.1649  -7.1646  -7.1643  -7.1642  -7.1639
    -7.1633  -7.1630  -7.1625  -7.1623  -7.1618  -7.1613  -7.1612  -7.1608
    -7.1604  -7.1596  -7.1595  -7.1593  -7.1590  -7.1584  -7.1582  -7.1577
    -7.1576  -7.1570  -7.1569  -7.1562  -7.1560  -7.1555  -7.1554  -7.1551
    -7.1548  -7.1545  -7.1542  -7.1534  -7.1532  -7.1530  -7.1527  -7.1517
    -7.1512  -7.1511  -7.1507  -7.1504  -7.1501  -7.1497  -7.1495  -7.1494
    -7.1491  -7.1488  -7.1484  -7.1480  -7.1476  -7.1474  -7.1473  -7.1471
    -7.1464  -7.1462  -7.1460  -7.1458  -7.1455  -7.1452  -7.1451  -7.1445
    -7.1444  -7.1441  -7.1437  -7.1432  -7.1426  -7.1425  -7.1421  -7.1416
    -7.1410  -7.1408  -7.1406  -7.1402  -7.1399  -7.1393  -7.1387  -7.1384
    -7.1377  -7.1373  -7.1368  -7.1366  -7.1365  -7.1360  -7.1354  -7.1351
    -7.1346  -7.1345  -7.1340  -7.1336  -7.1333  -7.1327  -7.1323  -7.1318
    -7.1315  -7.1310  -7.1308  -7.1305  -7.1299  -7.1296  -7.1291  -7.1286
    -7.1280  -7.1274  -7.1269  -7.1266  -7.1265  -7.1261  -7.1259  -7.1248
    -7.1245  -7.1242  -7.1235  -7.1231  -7.1228  -7.1224  -7.1222  -7.1221
    -7.1216  -7.1212  -7.1208  -7.1206  -7.1204  -7.1198  -7.1196  -7.1191
    -7.1186  -7.1186  -7.1184  -7.1176  -7.1171  -7.1169  -7.1165  -7.1164
    -7.1153  -7.1152  -7.1150  -7.1148  -7.1144  -7.1139  -7.1138  -7.1134
    -7.1130  -7.1126  -7.1121  -7.1118  -7.1115  -7.1108  -7.1099  -7.1097
    -7.1089  -7.1086  -7.1078  -7.1073  -7.1067  -7.1065  -7.1061  -7.1055
    -7.1048  -7.1045  -7.1042  -7.1041  -7.1037  -7.1026  -7.1023  -7.1019
    -7.1008  -7.1006  -7.0998  -7.0990  -7.0984  -7.0982  -7.0975  -7.0975
    -7.0968  -7.0960  -7.0959  -7.0952  -7.0936  -7.0928  -7.0926  -7.0918
    -7.0913  -7.0909  -7.0903  -7.0893  -7.0873  -7.0868  -7.0856  -7.0850
    -7.0833  -7.0826  -7.0821  -7.0812  -7.0801  -7.0788  -7.0755  -7.0753
    -7.0734  -7.0726  -7.0700  -7.0687  -7.0687  -7.0665  -7.0538  -7.0489
    -3.5603  -3.5236  -3.5097  -3.4411  -3.3486  -3.3272  -3.3071  -3.2623
    -3.2544  -3.1893  -3.1623  -3.0932  -3.0523  -3.0392  -3.0317  -3.0008
    -2.9814  -2.9500  -2.9257  -2.8997  -2.8630  -2.8451  -2.8308  -2.8127
    -2.7588  -2.7344  -2.7331  -2.7078  -2.6730  -2.6681  -2.6455  -2.6271
    -2.6185  -2.5974  -2.5871  -2.5623  -2.5382  -2.5326  -2.5141  -2.4764
    -2.4610  -2.4434  -2.4259  -2.3894  -2.3852  -2.3605  -2.3437  -2.3180
    -2.2817  -2.2476  -2.2328  -2.2258  -2.2161  -2.2013  -2.1488  -2.0780
    -1.9950  -1.9834  -1.9162  -1.8685  -1.8634  -1.8192  -1.7890  -1.7757
    -1.7247  -1.6966  -1.6720  -1.6320  -1.6249  -1.6172  -1.5630  -1.5592
    -1.5140  -1.5058  -1.4820  -1.4600  -1.4379  -1.4155  -1.3815  -1.3676
    -1.3514  -1.3282  -1.3059  -1.2725  -1.2504  -1.2369  -1.2303  -1.2051
    -1.1858  -1.1659  -1.1249  -1.1193  -1.0936  -1.0779  -1.0487  -1.0397
    -1.0019  -0.9921  -0.9624  -0.9543  -0.9461  -0.9301  -0.9274  -0.9036
    -0.8832  -0.8389  -0.8317  -0.7523   0.5165   0.5335   0.5539   0.5803
     0.7517   0.7615   0.7759   0.7894   0.7910   0.7968   0.8058   0.8137
     0.8147   0.8234   0.8332   0.8416   0.8469   0.8494   0.8527   0.8624
     0.8654   0.8725   0.8753   0.8798   0.8877   0.8933   0.8962   0.9033
     0.9143   0.9153   0.9220   0.9288   0.9330   0.9384   0.9414   0.9487
     0.9572   0.9652   0.9765   0.9787   0.9901   0.9938   0.9997   1.0145
     1.0164   1.0322   1.0407   1.0435   1.0508   1.0587   1.0608   1.0701
     1.0817   1.0891   1.1000   1.1042   1.1145   1.1306   1.1339   1.1519
     1.6025   1.6101   1.6682   1.6877   1.6970   1.7215   1.7388   1.7552
     1.7861   1.8025   1.8361   1.8525   1.8859   1.9036   1.9158   1.9376
     1.9468   1.9630   1.9822   2.0109   2.0171   2.0331   2.0427   2.0533
     2.0671   2.0957   2.1054   2.1277   2.8233   2.8878   2.9085   2.9540
     2.9711   2.9797   3.0240   3.0438   3.4140   3.4171   3.4344   3.4559
     3.4583   3.4815   3.4889   3.4922   3.5072   3.5153   3.5298   3.5339
     3.5482   3.5516   3.5858   3.6398   3.6613   3.6654   3.6835   3.6905
     3.6992   3.7163   3.7241   3.7322   3.7380   3.7401   3.7472   3.7576
     3.7753   3.7836   3.7929   3.8021   3.8286   3.8476   3.8642   3.8750
     3.8901   3.9123   3.9264   3.9352   3.9418   3.9504   3.9582   3.9669
     3.9773   3.9941   3.9959   4.0083   4.0203   4.0263   4.0333   4.0386
     4.0465   4.0581   4.0779   4.0870   4.3144   4.3440   4.3651   4.3788
     4.3916   4.4023   4.4133   4.4392   4.4591   4.4747   4.4857   4.5013
     4.5026   4.5149   4.5262   4.5320   4.5433   4.5573   4.5621   4.5694
     4.5731   4.5806   4.5940   4.6007   4.6155   4.6202   4.6299   4.6323
     4.6466   4.6472   4.6590   4.6603   4.6737   4.6902   4.7227   4.7522
     4.7806   4.7846   4.7925   4.8171   4.8217   4.8374   4.8382   4.8480
     4.8577   4.8660   4.8692   4.8893   4.9026   4.9135   4.9172   4.9281
     4.9373   4.9484   4.9576   4.9614   4.9744   4.9833   4.9958   5.0081
     5.0100   5.0211   5.0348   5.0424   5.0580   5.0687   5.0753   5.0797
     5.1077   5.1105   5.1219   5.1277   5.1383   5.1503   5.1594   5.1813
     5.1848   5.1915   5.2103   5.2153   5.2258   5.2279   5.2433   5.2574
     5.2736   5.2775   5.2836   5.2972   5.3206   5.3352   5.3634   5.3673
     5.3890   5.3935   5.4028   5.4155   5.4247   5.4347   5.4410   5.4505
     5.4735   5.4741   5.4909   5.4939   5.5089   5.5237   5.5358   5.5417
     5.5588   5.5815   5.5942   5.5987   5.6929   5.6952   5.7040   5.7188
     5.7342   5.7443   5.7546   5.7628   5.7733   5.8078   5.8364   5.8536
     5.8574   5.8830   5.8911   5.8970   5.9101   5.9198   5.9429   5.9469
     5.9722   5.9853   5.9942   6.0043   6.0197   6.0239   6.0279   6.0458
     6.0646   6.0707   6.0779   6.0975   6.1295   6.1379   6.1694   6.1718
     6.1852   6.2053   6.2303   6.2438   6.2547   6.2697   6.2850   6.2955
     6.3168   6.3335   6.3442   6.3547   6.3912   6.4166   6.4210   6.4362
     6.4694   6.5067   6.5220   6.5709   6.8752   6.9153   7.0069   7.0332
     8.4520   8.4790   8.5182   8.5471   8.5677   8.6195   8.6354   8.6685
     8.6967   8.7424   8.7464   8.8208   8.8793   8.9214   8.9370   8.9842
     8.9859   9.0345   9.0719   9.1084   9.1831   9.2010   9.2203   9.2446
     9.2464   9.2700   9.2755   9.2972   9.3011   9.3109   9.3199   9.3328
     9.3462   9.3642   9.3745   9.3773   9.3829   9.3967   9.4054   9.4157
     9.4271   9.4291   9.4381   9.4426   9.4529   9.4631   9.4768   9.4903
     9.4936   9.5059   9.5280   9.5339   9.5428   9.5538   9.5769   9.5896
     9.6195   9.6409   9.6444   9.6609   9.6656   9.6705   9.6804   9.6879
     9.7026   9.7072   9.7145   9.7210   9.7262   9.7408   9.7485   9.7514
     9.7648   9.7682   9.7770   9.7801   9.7915   9.7935   9.8021   9.8088
     9.8159   9.8202   9.8291   9.8367   9.8449   9.8543   9.8593   9.8660
     9.8697   9.8777   9.8902   9.8977   9.9052   9.9132   9.9192   9.9238
     9.9350   9.9479   9.9578   9.9738   9.9758   9.9821   9.9889  10.0057
    10.0127  10.0186  10.0436  10.0601  10.2902  10.3025  10.3151  10.3311
    10.3515  10.3776  10.3842  10.4062  10.4153  10.4190  10.4483  10.4715
    10.5277  10.5735  10.6115  10.6316  10.6404  10.6542  10.6771  10.6891
    10.7046  10.7248  10.7319  10.7509  10.7657  10.7819  10.8028  10.8389
    10.9476  10.9569  10.9597  11.0011  11.0205  11.0318  11.0406  11.0677
    11.0799  11.0965  11.1156  11.1181  11.1750  11.1782  11.1883  11.1955
    11.2487  11.2653  11.2762  11.2841  11.2861  11.3011  11.3160  11.3236
    11.3350  11.3392  11.3427  11.3493  11.3620  11.3769  11.3838  11.3916
    11.4030  11.4121  11.4363  11.4391  11.4452  11.4473  11.4614  11.4712
    11.4793  11.4846  11.4929  11.4956  11.5033  11.5245  11.5295  11.5346
    11.5406  11.5431  11.5460  11.5595  11.5663  11.5816  11.5843  11.5958
    11.6036  11.6099  11.6218  11.6321  11.6347  11.6447  11.6552  11.6599
    11.6693  11.6773  11.6851  11.6988  11.7064  11.7199  11.7447  11.7578
    11.7824  11.7852  11.8149  11.8238  11.8847  11.8990  11.9215  11.9229
    11.9292  11.9455  11.9499  11.9610  11.9684  11.9726  11.9824  11.9865
    12.0014  12.0041  12.0132  12.0368  12.0452  12.0605  12.0641  12.0755
    12.0960  12.1238  12.1322  12.1419  12.1499  12.1538  12.1659  12.1732
    12.1817  12.1875  12.1928  12.2012  12.2228  12.2400  12.2475  12.2723
    12.2757  12.2885  12.3211  12.3252  12.3406  12.3461  12.3624  12.3681
    12.3831  12.3912  12.4036  12.4102  12.4230  12.4310  12.4371  12.4483
    12.4584  12.4739  12.4835  12.4860  12.5031  12.5167  12.5370  12.5407
    12.5505  12.5560  12.5675  12.5766  12.5999  12.6076  12.6150  12.6416
    12.6476  12.6560  12.6641  12.6719  12.6853  12.6937  12.7095  12.7177
    12.7261  12.7471  12.7528  12.7685  12.7823  12.7839  12.8187  12.8268
    12.8344  12.8406  12.8427  12.8495  12.8554  12.8596  12.8670  12.8857
    12.8888  12.8976  12.9083  12.9117  12.9173  12.9342  12.9412  12.9435
    12.9527  12.9640  12.9683  12.9718  12.9814  12.9884  12.9964  13.0035
    13.0113  13.0209  13.0289  13.0372  13.0542  13.0578  13.0667  13.0684
    13.0819  13.0859  13.0960  13.1044  13.1069  13.1184  13.1353  13.1458
    13.1480  13.1566  13.1580  13.1831  13.1892  13.1948  13.2092  13.2200
    13.2410  13.2539  13.2990  13.3102  13.3209  13.3516  13.3574  13.3691
    13.6760  13.7018  13.7043  13.7219  13.7278  13.7415  13.7559  13.7775
    13.7837  13.7878  13.7951  13.8079  13.8137  13.8357  13.8584  13.8786
    13.8869  13.9073  13.9317  13.9333  13.9464  13.9529  13.9734  13.9931
    13.9998  14.0142  14.0198  14.0329  14.0502  14.0577  14.0936  14.1101
    14.1272  14.1497  14.1766  14.1923  14.2070  14.2159  14.2326  14.2538
    14.2668  14.2709  14.2797  14.3156  14.3298  14.3381  14.3652  14.3758
    14.3824  14.3926  14.4124  14.4338  14.4515  14.4625  14.4934  14.5026
    14.5150  14.5262  14.5351  14.5372  14.5474  14.5486  14.5678  14.5957
    14.6244  14.6419  14.6554  14.6827  14.7023  14.7141  14.7229  14.7297
    14.7402  14.7571  14.7706  14.7727  14.7922  14.8074  14.8252  14.8431
    14.8921  14.9096  14.9313  14.9390  14.9618  15.0054  15.0303  15.0565
    15.0798  15.0903  15.0988  15.1045  15.1371  15.1566  15.1612  15.1663
    15.1809  15.1992  15.2030  15.2159  15.2276  15.2344  15.2372  15.2488
    15.2571  15.2614  15.2789  15.2871  15.2907  15.3018  15.3080  15.3142
    15.3297  15.3340  15.3472  15.3475  15.3560  15.3732  15.3757  15.3801
    15.3928  15.4008  15.4119  15.4201  15.4237  15.4333  15.4366  15.4409
    15.4537  15.4591  15.4681  15.4753  15.4819  15.4871  15.4960  15.5041
    15.5165  15.5342  15.5455  15.5539  15.5572  15.5700  15.5841  15.5858
    15.6052  15.6185  15.6265  15.6400  15.6507  15.6694  15.6763  15.6835
    15.7023  15.7080  15.7248  15.7355  15.7428  15.7521  15.7691  15.7791
    15.7832  15.7899  15.7971  15.8040  15.8132  15.8213  15.8299  15.8417
    15.8473  15.8503  15.8570  15.8683  15.8806  15.8847  15.8907  15.9015
    15.9055  15.9202  15.9276  15.9460  15.9479  15.9598  15.9727  15.9837
    16.0137  16.0267  16.0346  16.0425  16.1074  16.1101  16.1120  16.1189
    16.1335  16.1405  16.1488  16.1518  16.1575  16.1652  16.1708  16.1790
    16.1872  16.2013  16.2084  16.2104  16.2161  16.2253  16.2308  16.2410
    16.2468  16.2520  16.2597  16.2628  16.2713  16.2822  16.2896  16.2976
    16.3073  16.3245  16.3440  16.3458  16.3612  16.3980  16.4141  16.4328
    16.4507  16.4793  16.5045  16.5335  16.5465  16.5780  16.5913  16.6219
    16.6363  16.6365  16.6450  16.6478  16.6616  16.6772  16.6827  16.6873
    16.7014  16.7065  16.7147  16.7160  16.7258  16.7304  16.7372  16.7533
    16.7566  16.7626  16.7719  16.7741  16.7814  16.7927  16.7990  16.8110
    17.0041  17.0222  17.0388  17.0544  17.0736  17.0805  17.0938  17.1076
    17.1330  17.1812  17.1982  17.2087  17.2242  17.2395  17.2492  17.2693
    17.2696  17.2726  17.3036  17.3072  17.3138  17.3316  17.3419  17.3480
    17.3606  17.3707  17.3754  17.3874  17.4008  17.4114  17.4198  17.4227
    17.4290  17.4393  17.4489  17.4543  17.4633  17.4761  17.4775  17.4829

     highest occupied, lowest unoccupied level (ev):     7.0678    7.2492

!    total energy              =  -35631.66343589 Ry
     estimated scf accuracy    <       0.00000781 Ry

     The total energy is the sum of the following terms:
     one-electron contribution =  -17773.14357573 Ry
     hartree contribution      =   10627.16697335 Ry
     xc contribution           =   -9354.66932966 Ry
     ewald contribution        =  -19133.24301452 Ry
     Hubbard energy            =       2.22551067 Ry

     convergence has been achieved in  12 iterations

     Writing all to output data dir ./tmp_In1.0Ga0.0As0.5Sb0.5_cube_3x3x3.8/In1.0Ga0.0As0.5Sb0.5_cube_3x3x3.8.save/ :
     XML data file, charge density, pseudopotentials, collected wavefunctions

     init_run     :    349.33s CPU    353.52s WALL (       1 calls)
     electrons    :  11620.37s CPU  11651.75s WALL (       1 calls)

     Called by init_run:
     wfcinit      :    338.34s CPU    342.00s WALL (       1 calls)
     potinit      :      2.31s CPU      2.39s WALL (       1 calls)
     hinit0       :      0.68s CPU      0.72s WALL (       1 calls)

     Called by electrons:
     c_bands      :  11047.76s CPU  11076.42s WALL (      13 calls)
     sum_band     :    565.73s CPU    566.82s WALL (      13 calls)
     v_of_rho     :      4.70s CPU      5.11s WALL (      13 calls)
     mix_rho      :      1.05s CPU      1.18s WALL (      13 calls)

     Called by c_bands:
     init_us_2    :     40.34s CPU     41.08s WALL (      28 calls)
     cegterg      :   9810.12s CPU   9837.00s WALL (      13 calls)

     Called by *egterg:
     cdiaghg      :    886.32s CPU    889.73s WALL (     116 calls)
     h_psi        :   6056.67s CPU   6069.10s WALL (     118 calls)
     g_psi        :      4.85s CPU      4.92s WALL (     104 calls)

     Called by h_psi:
     h_psi:calbec :    962.65s CPU    962.86s WALL (     118 calls)
     vloc_psi     :   1146.45s CPU   1149.00s WALL (     118 calls)
     add_vuspsi   :    937.89s CPU    941.10s WALL (     118 calls)
     vhpsi        :   2999.74s CPU   2999.99s WALL (     118 calls)

     General routines
     calbec       :   1218.45s CPU   1218.60s WALL (     250 calls)
     fft          :      2.85s CPU      3.14s WALL (     131 calls)
     ffts         :      0.28s CPU      0.29s WALL (      13 calls)
     fftw         :   1223.86s CPU   1226.49s WALL (  163954 calls)

     Parallel routines

     Hubbard U routines
     new_ns       :     65.60s CPU     65.62s WALL (      13 calls)
     vhpsi        :   2999.74s CPU   2999.99s WALL (     118 calls)

     PWSCF        :      3h20m CPU      3h23m WALL


   This run was terminated on:   2: 4: 3  31Jan2026            

=------------------------------------------------------------------------------=
   JOB DONE.
=------------------------------------------------------------------------------=
