
     Program PWSCF v.7.3.1 starts on 30Jan2026 at 19:19:55 

     This program is part of the open-source Quantum ESPRESSO suite
     for quantum simulation of materials; please cite
         "P. Giannozzi et al., J. Phys.:Condens. Matter 21 395502 (2009);
         "P. Giannozzi et al., J. Phys.:Condens. Matter 29 465901 (2017);
         "P. Giannozzi et al., J. Chem. Phys. 152 154105 (2020);
          URL http://www.quantum-espresso.org", 
     in publications or presentations arising from this work. More details at
     http://www.quantum-espresso.org/quote

     Parallel version (MPI), running on   640 processors

     MPI processes distributed on     5 nodes
     420280 MiB available memory on the printing compute node when the environment starts

     Reading input from In1.0Ga0.0As0.5Sb0.5_cube_3x3x3.7.scf.in
Warning: card &CELL ignored
Warning: card   CELL_DOFREE = 'ALL', ignored
Warning: card / ignored

     Current dimensions of program PWSCF are:
     Max number of different atomic species (ntypx) = 10
     Max number of k-points (npk) =  40000
     Max angular momentum in pseudopotentials (lmaxx) =  4

     K-points division:     npool     =       8
     R & G space division:  proc/nbgrp/npool/nimage =      80
     Subspace diagonalization in iterative solution of the eigenvalue problem:
     one sub-group per band group will be used
     custom distributed-memory algorithm (size of sub-group:  8*  8 procs)


     Parallelization info
     --------------------
     sticks:   dense  smooth     PW     G-vecs:    dense   smooth      PW
     Min         610     610    157               101464   101464   13220
     Max         611     611    159               101471   101471   13227
     Sum       48841   48841  12565              8117393  8117393 1057963

     Using Slab Decomposition



     bravais-lattice index     =            1
     lattice parameter (alat)  =      35.7550  a.u.
     unit-cell volume          =   45709.9523 (a.u.)^3
     number of atoms/cell      =          216
     number of atomic types    =            4
     number of electrons       =      3024.00
     number of Kohn-Sham states=         2160
     kinetic-energy cutoff     =     120.0000  Ry
     charge density cutoff     =     480.0000  Ry
     scf convergence threshold =      1.0E-05
     mixing beta               =       0.6500
     number of iterations used =            8  plain     mixing
     Exchange-correlation= PBE
                           (   1   4   3   4   0   0   0)
     Hubbard projectors: atomic
     Hubbard parameters of DFT+U (Dudarev formulation) in eV:
     U(As-4p) =  3.2600
     U(Ga-4p) = -2.8000
     U(In-5p) = -1.0150
     U(Sb-5p) =  3.1600

     Internal variables: lda_plus_u =T, lda_plus_u_kind = 0

     celldm(1)=  35.755012  celldm(2)=   0.000000  celldm(3)=   0.000000
     celldm(4)=   0.000000  celldm(5)=   0.000000  celldm(6)=   0.000000

     crystal axes: (cart. coord. in units of alat)
               a(1) = (   1.000000   0.000000   0.000000 )  
               a(2) = (   0.000000   1.000000   0.000000 )  
               a(3) = (   0.000000   0.000000   1.000000 )  

     reciprocal axes: (cart. coord. in units 2 pi/alat)
               b(1) = (  1.000000  0.000000  0.000000 )  
               b(2) = (  0.000000  1.000000  0.000000 )  
               b(3) = (  0.000000  0.000000  1.000000 )  


     PseudoPot. # 1 for As read from file:
     /work/i254/i254/gentles/data/pseudos/As.pbe.NC-SR.standard.v0.5.UPF
     MD5 check sum: bfe1a874457ce592347346129958e7cf
     Pseudo is Norm-conserving + core correction, Zval = 15.0
     Generated using ONCVPSP code by D. R. Hamann
     Using radial grid of 1358 points,  6 beta functions with: 
                l(1) =   0
                l(2) =   0
                l(3) =   1
                l(4) =   1
                l(5) =   2
                l(6) =   2

     PseudoPot. # 2 for Ga read from file:
     /work/i254/i254/gentles/data/pseudos/Ga.pbe.NC-SR.standard.v0.5.UPF
     MD5 check sum: 2bb81bf6f0a8d9832cf3329850435ecf
     Pseudo is Norm-conserving + core correction, Zval = 13.0
     Generated using ONCVPSP code by D. R. Hamann
     Using radial grid of 1902 points,  6 beta functions with: 
                l(1) =   0
                l(2) =   0
                l(3) =   1
                l(4) =   1
                l(5) =   2
                l(6) =   2

     PseudoPot. # 3 for In read from file:
     /work/i254/i254/gentles/data/pseudos/In.pbe.NC-SR.standard.v0.5.UPF
     MD5 check sum: 835f4bf908c982ff75c88e16816a8d7f
     Pseudo is Norm-conserving + core correction, Zval = 13.0
     Generated using ONCVPSP code by D. R. Hamann
     Using radial grid of 1964 points,  6 beta functions with: 
                l(1) =   0
                l(2) =   0
                l(3) =   1
                l(4) =   1
                l(5) =   2
                l(6) =   2

     PseudoPot. # 4 for Sb read from file:
     /work/i254/i254/gentles/data/pseudos/Sb.pbe.NC-SR.standard.v0.5.UPF
     MD5 check sum: 127f69b6101c45666faeae1b5d611565
     Pseudo is Norm-conserving + core correction, Zval = 15.0
     Generated using ONCVPSP code by D. R. Hamann
     Using radial grid of 1434 points,  6 beta functions with: 
                l(1) =   0
                l(2) =   0
                l(3) =   1
                l(4) =   1
                l(5) =   2
                l(6) =   2

     atomic species   valence    mass     pseudopotential
     As               15.00    74.92160     As( 1.00)
     Ga               13.00    69.72300     Ga( 1.00)
     In               13.00   114.81800     In( 1.00)
     Sb               15.00   121.76000     Sb( 1.00)

     No symmetry found



   Cartesian axes

     site n.     atom                  positions (alat units)
         1        In     tau(   1) = (  -0.0001080   0.0019070  -0.0012450  )
         2        In     tau(   2) = (  -0.0019870   0.1706140   0.1716080  )
         3        In     tau(   3) = (   0.1645590  -0.0044090   0.1728510  )
         4        In     tau(   4) = (   0.1755390   0.1670800   0.0014150  )
         5        Sb     tau(   5) = (   0.0844640   0.0853610   0.0862470  )
         6        As     tau(   6) = (   0.0840350   0.2501950   0.2499420  )
         7        Sb     tau(   7) = (   0.2521170   0.0880770   0.2493720  )
         8        As     tau(   8) = (   0.2545040   0.2483940   0.0844220  )
         9        In     tau(   9) = (  -0.0026770  -0.0009820   0.3245650  )
        10        In     tau(  10) = (  -0.0053700   0.1700120   0.4953880  )
        11        In     tau(  11) = (   0.1644270   0.0008250   0.4975900  )
        12        In     tau(  12) = (   0.1696170   0.1772750   0.3335750  )
        13        Sb     tau(  13) = (   0.0816980   0.0863360   0.4105550  )
        14        Sb     tau(  14) = (   0.0829530   0.2538340   0.5819600  )
        15        Sb     tau(  15) = (   0.2531010   0.0834440   0.5815300  )
        16        As     tau(  16) = (   0.2538190   0.2550400   0.4163670  )
        17        In     tau(  17) = (  -0.0040400  -0.0056600   0.6704570  )
        18        In     tau(  18) = (  -0.0050770   0.1727250   0.8290300  )
        19        In     tau(  19) = (   0.1750400   0.0045060   0.8392330  )
        20        In     tau(  20) = (   0.1669210   0.1664250   0.6667890  )
        21        Sb     tau(  21) = (   0.0827360   0.0817540   0.7529090  )
        22        Sb     tau(  22) = (   0.0840630   0.2511720   0.9180340  )
        23        As     tau(  23) = (   0.2554570   0.0867520   0.9192750  )
        24        Sb     tau(  24) = (   0.2533810   0.2540530   0.7494510  )
        25        In     tau(  25) = (  -0.0056870   0.3287900   0.0071400  )
        26        In     tau(  26) = (   0.0053430   0.5046880   0.1730540  )
        27        In     tau(  27) = (   0.1689890   0.3259140   0.1664770  )
        28        In     tau(  28) = (   0.1653450   0.5026280  -0.0033950  )
        29        Sb     tau(  29) = (   0.0844860   0.4159510   0.0852840  )
        30        As     tau(  30) = (   0.0873750   0.5868770   0.2510840  )
        31        Sb     tau(  31) = (   0.2505760   0.4152000   0.2523610  )
        32        Sb     tau(  32) = (   0.2522710   0.5856030   0.0839890  )
        33        In     tau(  33) = (   0.0024530   0.3268280   0.3343950  )
        34        In     tau(  34) = (  -0.0032740   0.4936760   0.5058420  )
        35        In     tau(  35) = (   0.1772670   0.3361210   0.5014030  )
        36        In     tau(  36) = (   0.1669410   0.5072470   0.3337070  )
        37        Sb     tau(  37) = (   0.0856300   0.4163280   0.4175040  )
        38        Sb     tau(  38) = (   0.0860590   0.5833750   0.5832690  )
        39        As     tau(  39) = (   0.2558820   0.4182330   0.5833700  )
        40        As     tau(  40) = (   0.2515600   0.5831870   0.4155160  )
        41        In     tau(  41) = (  -0.0018650   0.3393720   0.6697980  )
        42        In     tau(  42) = (   0.0035730   0.5059440   0.8291510  )
        43        In     tau(  43) = (   0.1618930   0.3406580   0.8285280  )
        44        In     tau(  44) = (   0.1737440   0.4975440   0.6677720  )
        45        As     tau(  45) = (   0.0830420   0.4225660   0.7469880  )
        46        As     tau(  46) = (   0.0846220   0.5827550   0.9149710  )
        47        Sb     tau(  47) = (   0.2534710   0.4185690   0.9141860  )
        48        As     tau(  48) = (   0.2532270   0.5814310   0.7491910  )
        49        In     tau(  49) = (   0.0081050   0.6671610  -0.0019380  )
        50        In     tau(  50) = (   0.0052320   0.8331230   0.1661690  )
        51        In     tau(  51) = (   0.1653990   0.6701870   0.1690030  )
        52        In     tau(  52) = (   0.1654860   0.8268760   0.0025370  )
        53        As     tau(  53) = (   0.0843080   0.7485890   0.0849730  )
        54        As     tau(  54) = (   0.0832680   0.9131880   0.2512000  )
        55        As     tau(  55) = (   0.2491760   0.7467520   0.2507430  )
        56        Sb     tau(  56) = (   0.2519030   0.9148250   0.0842760  )
        57        In     tau(  57) = (   0.0079540   0.6644560   0.3351350  )
        58        In     tau(  58) = (   0.0006530   0.8233080   0.4983400  )
        59        In     tau(  59) = (   0.1733430   0.6686520   0.4964010  )
        60        In     tau(  60) = (   0.1648550   0.8286320   0.3310260  )
        61        As     tau(  61) = (   0.0873370   0.7470190   0.4161660  )
        62        Sb     tau(  62) = (   0.0821400   0.9126260   0.5825580  )
        63        As     tau(  63) = (   0.2528410   0.7476090   0.5838320  )
        64        Sb     tau(  64) = (   0.2509520   0.9126510   0.4175690  )
        65        In     tau(  65) = (  -0.0079580   0.6663000   0.6640540  )
        66        In     tau(  66) = (  -0.0032730   0.8370670   0.8281610  )
        67        In     tau(  67) = (   0.1686180   0.6567840   0.8319540  )
        68        In     tau(  68) = (   0.1703950   0.8269130   0.6632770  )
        69        Sb     tau(  69) = (   0.0824140   0.7457630   0.7493030  )
        70        Sb     tau(  70) = (   0.0853740   0.9160470   0.9161440  )
        71        Sb     tau(  71) = (   0.2533820   0.7451680   0.9150700  )
        72        Sb     tau(  72) = (   0.2526540   0.9150580   0.7492430  )
        73        In     tau(  73) = (   0.3357510   0.0067970   0.0010150  )
        74        In     tau(  74) = (   0.3412180   0.1704430   0.1637690  )
        75        In     tau(  75) = (   0.4991240   0.0002120   0.1561510  )
        76        In     tau(  76) = (   0.5007470   0.1682590   0.0001700  )
        77        As     tau(  77) = (   0.4188130   0.0873210   0.0803880  )
        78        As     tau(  78) = (   0.4187180   0.2517620   0.2502760  )
        79        Sb     tau(  79) = (   0.5815880   0.0864950   0.2444110  )
        80        As     tau(  80) = (   0.5818710   0.2501440   0.0832230  )
        81        In     tau(  81) = (   0.3348590   0.0009140   0.3340130  )
        82        In     tau(  82) = (   0.3331220   0.1762110   0.4996340  )
        83        In     tau(  83) = (   0.5004980   0.0004070   0.5083840  )
        84        In     tau(  84) = (   0.5008940   0.1733200   0.3325960  )
        85        Sb     tau(  85) = (   0.4190220   0.0864430   0.4197190  )
        86        As     tau(  86) = (   0.4177690   0.2543080   0.5797870  )
        87        As     tau(  87) = (   0.5830470   0.0845710   0.5838970  )
        88        As     tau(  88) = (   0.5818230   0.2522600   0.4160000  )
        89        In     tau(  89) = (   0.3400950  -0.0040760   0.6638810  )
        90        In     tau(  90) = (   0.3368760   0.1690860   0.8397220  )
        91        In     tau(  91) = (   0.5106120  -0.0018710   0.8333550  )
        92        In     tau(  92) = (   0.4992700   0.1695520   0.6587320  )
        93        Sb     tau(  93) = (   0.4211320   0.0838920   0.7507980  )
        94        As     tau(  94) = (   0.4185100   0.2503350   0.9197590  )
        95        As     tau(  95) = (   0.5816570   0.0828690   0.9213060  )
        96        Sb     tau(  96) = (   0.5812110   0.2515100   0.7506830  )
        97        In     tau(  97) = (   0.3339960   0.3280330   0.0009760  )
        98        In     tau(  98) = (   0.3376840   0.5007610   0.1702060  )
        99        In     tau(  99) = (   0.5037290   0.3302810   0.1704220  )
       100        In     tau( 100) = (   0.5027090   0.5041830  -0.0054800  )
       101        Sb     tau( 101) = (   0.4210610   0.4163030   0.0823310  )
       102        As     tau( 102) = (   0.4174000   0.5817940   0.2516500  )
       103        As     tau( 103) = (   0.5800670   0.4155070   0.2526560  )
       104        As     tau( 104) = (   0.5794590   0.5835200   0.0816080  )
       105        In     tau( 105) = (   0.3391810   0.3318310   0.3352080  )
       106        In     tau( 106) = (   0.3319210   0.4977520   0.4952520  )
       107        In     tau( 107) = (   0.4966180   0.3332810   0.4944710  )
       108        In     tau( 108) = (   0.4987090   0.4996330   0.3340870  )
       109        As     tau( 109) = (   0.4167030   0.4173770   0.4149790  )
       110        Sb     tau( 110) = (   0.4162110   0.5821030   0.5846790  )
       111        Sb     tau( 111) = (   0.5802810   0.4167920   0.5833440  )
       112        As     tau( 112) = (   0.5809620   0.5829110   0.4158370  )
       113        In     tau( 113) = (   0.3412210   0.3390400   0.6631120  )
       114        In     tau( 114) = (   0.3392200   0.5051590   0.8300640  )
       115        In     tau( 115) = (   0.4935560   0.3367150   0.8365110  )
       116        In     tau( 116) = (   0.5001700   0.5006370   0.6755180  )
       117        As     tau( 117) = (   0.4172530   0.4186650   0.7519730  )
       118        As     tau( 118) = (   0.4208310   0.5845080   0.9135390  )
       119        As     tau( 119) = (   0.5775330   0.4177800   0.9144790  )
       120        As     tau( 120) = (   0.5805420   0.5857180   0.7529240  )
       121        In     tau( 121) = (   0.3441590   0.6651290  -0.0009990  )
       122        In     tau( 122) = (   0.3339770   0.8216980   0.1658840  )
       123        In     tau( 123) = (   0.4963240   0.6604240   0.1650170  )
       124        In     tau( 124) = (   0.5039340   0.8293360   0.0034720  )
       125        As     tau( 125) = (   0.4208990   0.7462220   0.0836950  )
       126        Sb     tau( 126) = (   0.4163500   0.9158810   0.2451150  )
       127        Sb     tau( 127) = (   0.5836600   0.7476880   0.2479060  )
       128        As     tau( 128) = (   0.5830900   0.9172380   0.0800160  )
       129        In     tau( 129) = (   0.3308410   0.6617380   0.3302190  )
       130        In     tau( 130) = (   0.3362990   0.8315260   0.5085420  )
       131        In     tau( 131) = (   0.5072530   0.6653080   0.5023990  )
       132        In     tau( 132) = (   0.4999530   0.8335010   0.3331770  )
       133        Sb     tau( 133) = (   0.4164760   0.7464900   0.4178370  )
       134        As     tau( 134) = (   0.4207230   0.9135810   0.5858000  )
       135        As     tau( 135) = (   0.5837510   0.7488060   0.5869740  )
       136        Sb     tau( 136) = (   0.5843050   0.9150060   0.4223210  )
       137        In     tau( 137) = (   0.3310670   0.6686230   0.6698190  )
       138        In     tau( 138) = (   0.3404130   0.8288250   0.8296320  )
       139        In     tau( 139) = (   0.4999250   0.6677480   0.8336090  )
       140        In     tau( 140) = (   0.5001620   0.8307870   0.6672430  )
       141        As     tau( 141) = (   0.4194590   0.7472920   0.7482690  )
       142        Sb     tau( 142) = (   0.4205490   0.9165400   0.9181340  )
       143        As     tau( 143) = (   0.5808710   0.7490380   0.9162500  )
       144        As     tau( 144) = (   0.5836550   0.9126930   0.7474110  )
       145        In     tau( 145) = (   0.6634780   0.0042430   0.0037250  )
       146        In     tau( 146) = (   0.6698330   0.1718140   0.1617880  )
       147        In     tau( 147) = (   0.8326240   0.0095570   0.1680220  )
       148        In     tau( 148) = (   0.8307720   0.1660740   0.0081260  )
       149        As     tau( 149) = (   0.7477480   0.0846640   0.0849950  )
       150        As     tau( 150) = (   0.7484400   0.2491830   0.2495620  )
       151        As     tau( 151) = (   0.9157110   0.0878040   0.2498960  )
       152        As     tau( 152) = (   0.9134940   0.2471730   0.0883290  )
       153        In     tau( 153) = (   0.6633910   0.0015170   0.3329790  )
       154        In     tau( 154) = (   0.6612370   0.1706050   0.5019040  )
       155        In     tau( 155) = (   0.8273660  -0.0047740   0.5055690  )
       156        In     tau( 156) = (   0.8348140   0.1710690   0.3312570  )
       157        Sb     tau( 157) = (   0.7489940   0.0861240   0.4178680  )
       158        As     tau( 158) = (   0.7495070   0.2495180   0.5806430  )
       159        Sb     tau( 159) = (   0.9142710   0.0840760   0.5856260  )
       160        As     tau( 160) = (   0.9148270   0.2515840   0.4151680  )
       161        In     tau( 161) = (   0.6615810  -0.0043980   0.6626350  )
       162        In     tau( 162) = (   0.6607690   0.1613690   0.8383170  )
       163        In     tau( 163) = (   0.8335580  -0.0053880   0.8286620  )
       164        In     tau( 164) = (   0.8305970   0.1746100   0.6667390  )
       165        Sb     tau( 165) = (   0.7465710   0.0822280   0.7476270  )
       166        Sb     tau( 166) = (   0.7467380   0.2497950   0.9194490  )
       167        Sb     tau( 167) = (   0.9126250   0.0852910   0.9147480  )
       168        As     tau( 168) = (   0.9156930   0.2540090   0.7466440  )
       169        In     tau( 169) = (   0.6546070   0.3352210  -0.0019970  )
       170        In     tau( 170) = (   0.6547430   0.5000830   0.1676930  )
       171        In     tau( 171) = (   0.8298660   0.3278220   0.1669810  )
       172        In     tau( 172) = (   0.8317000   0.4996390  -0.0009700  )
       173        Sb     tau( 173) = (   0.7436400   0.4159530   0.0840640  )
       174        Sb     tau( 174) = (   0.7453450   0.5840730   0.2497010  )
       175        Sb     tau( 175) = (   0.9182550   0.4135830   0.2498780  )
       176        Sb     tau( 176) = (   0.9186420   0.5850550   0.0830520  )
       177        In     tau( 177) = (   0.6632020   0.3299180   0.3298700  )
       178        In     tau( 178) = (   0.6617710   0.5036090   0.4968000  )
       179        In     tau( 179) = (   0.8353840   0.3299540   0.5028450  )
       180        In     tau( 180) = (   0.8329980   0.4995610   0.3327850  )
       181        Sb     tau( 181) = (   0.7482490   0.4140100   0.4172370  )
       182        Sb     tau( 182) = (   0.7482950   0.5861590   0.5844580  )
       183        As     tau( 183) = (   0.9146290   0.4138320   0.5856610  )
       184        Sb     tau( 184) = (   0.9172620   0.5841300   0.4198910  )
       185        In     tau( 185) = (   0.6704970   0.3303880   0.6616860  )
       186        In     tau( 186) = (   0.6569890   0.4992930   0.8327360  )
       187        In     tau( 187) = (   0.8343210   0.3298900   0.8306420  )
       188        In     tau( 188) = (   0.8384390   0.5004120   0.6655990  )
       189        Sb     tau( 189) = (   0.7491270   0.4181620   0.7491810  )
       190        Sb     tau( 190) = (   0.7449190   0.5849410   0.9151970  )
       191        Sb     tau( 191) = (   0.9191820   0.4164820   0.9143130  )
       192        As     tau( 192) = (   0.9165020   0.5831960   0.7476270  )
       193        In     tau( 193) = (   0.6601280   0.6696780   0.0024740  )
       194        In     tau( 194) = (   0.6645260   0.8354520   0.1594240  )
       195        In     tau( 195) = (   0.8273490   0.6710320   0.1621320  )
       196        In     tau( 196) = (   0.8275130   0.8283810   0.0029000  )
       197        As     tau( 197) = (   0.7437980   0.7500960   0.0818260  )
       198        Sb     tau( 198) = (   0.7490430   0.9174100   0.2483290  )
       199        Sb     tau( 199) = (   0.9176690   0.7482530   0.2512140  )
       200        Sb     tau( 200) = (   0.9146020   0.9175750   0.0846530  )
       201        In     tau( 201) = (   0.6652400   0.6667960   0.3418000  )
       202        In     tau( 202) = (   0.6690030   0.8276910   0.5070150  )
       203        In     tau( 203) = (   0.8321370   0.6744230   0.5011000  )
       204        In     tau( 204) = (   0.8270380   0.8284220   0.3368410  )
       205        As     tau( 205) = (   0.7468460   0.7495970   0.4205670  )
       206        As     tau( 206) = (   0.7471170   0.9129570   0.5861180  )
       207        As     tau( 207) = (   0.9137100   0.7516460   0.5838970  )
       208        Sb     tau( 208) = (   0.9155750   0.9144310   0.4171770  )
       209        In     tau( 209) = (   0.6617630   0.6685370   0.6721480  )
       210        In     tau( 210) = (   0.6619170   0.8281600   0.8300710  )
       211        In     tau( 211) = (   0.8308460   0.6654200   0.8243120  )
       212        In     tau( 212) = (   0.8301340   0.8321730   0.6664240  )
       213        As     tau( 213) = (   0.7476030   0.7501720   0.7482860  )
       214        Sb     tau( 214) = (   0.7448890   0.9154330   0.9165050  )
       215        Sb     tau( 215) = (   0.9158660   0.7484480   0.9144290  )
       216        As     tau( 216) = (   0.9124950   0.9131610   0.7472880  )

     number of k points=     8
                       cart. coord. in units 2pi/alat
        k(    1) = (   0.0000000   0.0000000   0.0000000), wk =   0.2500000
        k(    2) = (   0.0000000   0.0000000  -0.5000000), wk =   0.2500000
        k(    3) = (   0.0000000  -0.5000000  -0.5000000), wk =   0.2500000
        k(    4) = (  -0.5000000  -0.5000000  -0.5000000), wk =   0.2500000
        k(    5) = (  -0.5000000   0.0000000   0.0000000), wk =   0.2500000
        k(    6) = (   0.0000000  -0.5000000   0.0000000), wk =   0.2500000
        k(    7) = (  -0.5000000   0.0000000   0.5000000), wk =   0.2500000
        k(    8) = (  -0.5000000   0.5000000   0.0000000), wk =   0.2500000

     Dense  grid:  8117393 G-vectors     FFT dimensions: ( 250, 250, 250)

     Estimated max dynamical RAM per process >       3.11 GB

     Estimated total dynamical RAM >    1977.14 GB

     Initial potential from superposition of free atoms

     starting charge    3023.5361, renormalised to    3024.0000

     STARTING HUBBARD OCCUPATIONS:

     =================== HUBBARD OCCUPATIONS ===================
     ------------------------ ATOM    1 ------------------------
     Tr[ns(  1)] =   1.00000
     eigenvalues:
       0.167  0.167  0.167
     eigenvectors (columns):
       1.000  0.000  0.000
       0.000  1.000  0.000
       0.000  0.000  1.000
     occupation matrix ns (before diag.):
       0.167  0.000  0.000
       0.000  0.167  0.000
       0.000  0.000  0.167
     ------------------------ ATOM    2 ------------------------
     Tr[ns(  2)] =   1.00000
     eigenvalues:
       0.167  0.167  0.167
     eigenvectors (columns):
       1.000  0.000  0.000
       0.000  1.000  0.000
       0.000  0.000  1.000
     occupation matrix ns (before diag.):
       0.167  0.000  0.000
       0.000  0.167  0.000
       0.000  0.000  0.167
     ------------------------ ATOM    3 ------------------------
     Tr[ns(  3)] =   1.00000
     eigenvalues:
       0.167  0.167  0.167
     eigenvectors (columns):
       1.000  0.000  0.000
       0.000  1.000  0.000
       0.000  0.000  1.000
     occupation matrix ns (before diag.):
       0.167  0.000  0.000
       0.000  0.167  0.000
       0.000  0.000  0.167
     ------------------------ ATOM    4 ------------------------
     Tr[ns(  4)] =   1.00000
     eigenvalues:
       0.167  0.167  0.167
     eigenvectors (columns):
       1.000  0.000  0.000
       0.000  1.000  0.000
       0.000  0.000  1.000
     occupation matrix ns (before diag.):
       0.167  0.000  0.000
       0.000  0.167  0.000
       0.000  0.000  0.167
     ------------------------ ATOM    5 ------------------------
     Tr[ns(  5)] =   3.00000
     eigenvalues:
       0.500  0.500  0.500
     eigenvectors (columns):
       1.000  0.000  0.000
       0.000  1.000  0.000
       0.000  0.000  1.000
     occupation matrix ns (before diag.):
       0.500  0.000  0.000
       0.000  0.500  0.000
       0.000  0.000  0.500
     ------------------------ ATOM    6 ------------------------
     Tr[ns(  6)] =   3.00000
     eigenvalues:
       0.500  0.500  0.500
     eigenvectors (columns):
       1.000  0.000  0.000
       0.000  1.000  0.000
       0.000  0.000  1.000
     occupation matrix ns (before diag.):
       0.500  0.000  0.000
       0.000  0.500  0.000
       0.000  0.000  0.500
     ------------------------ ATOM    7 ------------------------
     Tr[ns(  7)] =   3.00000
     eigenvalues:
       0.500  0.500  0.500
     eigenvectors (columns):
       1.000  0.000  0.000
       0.000  1.000  0.000
       0.000  0.000  1.000
     occupation matrix ns (before diag.):
       0.500  0.000  0.000
       0.000  0.500  0.000
       0.000  0.000  0.500
     ------------------------ ATOM    8 ------------------------
     Tr[ns(  8)] =   3.00000
     eigenvalues:
       0.500  0.500  0.500
     eigenvectors (columns):
       1.000  0.000  0.000
       0.000  1.000  0.000
       0.000  0.000  1.000
     occupation matrix ns (before diag.):
       0.500  0.000  0.000
       0.000  0.500  0.000
       0.000  0.000  0.500
     ------------------------ ATOM    9 ------------------------
     Tr[ns(  9)] =   1.00000
     eigenvalues:
       0.167  0.167  0.167
     eigenvectors (columns):
       1.000  0.000  0.000
       0.000  1.000  0.000
       0.000  0.000  1.000
     occupation matrix ns (before diag.):
       0.167  0.000  0.000
       0.000  0.167  0.000
       0.000  0.000  0.167
     ------------------------ ATOM   10 ------------------------
     Tr[ns( 10)] =   1.00000
     eigenvalues:
       0.167  0.167  0.167
     eigenvectors (columns):
       1.000  0.000  0.000
       0.000  1.000  0.000
       0.000  0.000  1.000
     occupation matrix ns (before diag.):
       0.167  0.000  0.000
       0.000  0.167  0.000
       0.000  0.000  0.167
     ------------------------ ATOM   11 ------------------------
     Tr[ns( 11)] =   1.00000
     eigenvalues:
       0.167  0.167  0.167
     eigenvectors (columns):
       1.000  0.000  0.000
       0.000  1.000  0.000
       0.000  0.000  1.000
     occupation matrix ns (before diag.):
       0.167  0.000  0.000
       0.000  0.167  0.000
       0.000  0.000  0.167
     ------------------------ ATOM   12 ------------------------
     Tr[ns( 12)] =   1.00000
     eigenvalues:
       0.167  0.167  0.167
     eigenvectors (columns):
       1.000  0.000  0.000
       0.000  1.000  0.000
       0.000  0.000  1.000
     occupation matrix ns (before diag.):
       0.167  0.000  0.000
       0.000  0.167  0.000
       0.000  0.000  0.167
     ------------------------ ATOM   13 ------------------------
     Tr[ns( 13)] =   3.00000
     eigenvalues:
       0.500  0.500  0.500
     eigenvectors (columns):
       1.000  0.000  0.000
       0.000  1.000  0.000
       0.000  0.000  1.000
     occupation matrix ns (before diag.):
       0.500  0.000  0.000
       0.000  0.500  0.000
       0.000  0.000  0.500
     ------------------------ ATOM   14 ------------------------
     Tr[ns( 14)] =   3.00000
     eigenvalues:
       0.500  0.500  0.500
     eigenvectors (columns):
       1.000  0.000  0.000
       0.000  1.000  0.000
       0.000  0.000  1.000
     occupation matrix ns (before diag.):
       0.500  0.000  0.000
       0.000  0.500  0.000
       0.000  0.000  0.500
     ------------------------ ATOM   15 ------------------------
     Tr[ns( 15)] =   3.00000
     eigenvalues:
       0.500  0.500  0.500
     eigenvectors (columns):
       1.000  0.000  0.000
       0.000  1.000  0.000
       0.000  0.000  1.000
     occupation matrix ns (before diag.):
       0.500  0.000  0.000
       0.000  0.500  0.000
       0.000  0.000  0.500
     ------------------------ ATOM   16 ------------------------
     Tr[ns( 16)] =   3.00000
     eigenvalues:
       0.500  0.500  0.500
     eigenvectors (columns):
       1.000  0.000  0.000
       0.000  1.000  0.000
       0.000  0.000  1.000
     occupation matrix ns (before diag.):
       0.500  0.000  0.000
       0.000  0.500  0.000
       0.000  0.000  0.500
     ------------------------ ATOM   17 ------------------------
     Tr[ns( 17)] =   1.00000
     eigenvalues:
       0.167  0.167  0.167
     eigenvectors (columns):
       1.000  0.000  0.000
       0.000  1.000  0.000
       0.000  0.000  1.000
     occupation matrix ns (before diag.):
       0.167  0.000  0.000
       0.000  0.167  0.000
       0.000  0.000  0.167
     ------------------------ ATOM   18 ------------------------
     Tr[ns( 18)] =   1.00000
     eigenvalues:
       0.167  0.167  0.167
     eigenvectors (columns):
       1.000  0.000  0.000
       0.000  1.000  0.000
       0.000  0.000  1.000
     occupation matrix ns (before diag.):
       0.167  0.000  0.000
       0.000  0.167  0.000
       0.000  0.000  0.167
     ------------------------ ATOM   19 ------------------------
     Tr[ns( 19)] =   1.00000
     eigenvalues:
       0.167  0.167  0.167
     eigenvectors (columns):
       1.000  0.000  0.000
       0.000  1.000  0.000
       0.000  0.000  1.000
     occupation matrix ns (before diag.):
       0.167  0.000  0.000
       0.000  0.167  0.000
       0.000  0.000  0.167
     ------------------------ ATOM   20 ------------------------
     Tr[ns( 20)] =   1.00000
     eigenvalues:
       0.167  0.167  0.167
     eigenvectors (columns):
       1.000  0.000  0.000
       0.000  1.000  0.000
       0.000  0.000  1.000
     occupation matrix ns (before diag.):
       0.167  0.000  0.000
       0.000  0.167  0.000
       0.000  0.000  0.167
     ------------------------ ATOM   21 ------------------------
     Tr[ns( 21)] =   3.00000
     eigenvalues:
       0.500  0.500  0.500
     eigenvectors (columns):
       1.000  0.000  0.000
       0.000  1.000  0.000
       0.000  0.000  1.000
     occupation matrix ns (before diag.):
       0.500  0.000  0.000
       0.000  0.500  0.000
       0.000  0.000  0.500
     ------------------------ ATOM   22 ------------------------
     Tr[ns( 22)] =   3.00000
     eigenvalues:
       0.500  0.500  0.500
     eigenvectors (columns):
       1.000  0.000  0.000
       0.000  1.000  0.000
       0.000  0.000  1.000
     occupation matrix ns (before diag.):
       0.500  0.000  0.000
       0.000  0.500  0.000
       0.000  0.000  0.500
     ------------------------ ATOM   23 ------------------------
     Tr[ns( 23)] =   3.00000
     eigenvalues:
       0.500  0.500  0.500
     eigenvectors (columns):
       1.000  0.000  0.000
       0.000  1.000  0.000
       0.000  0.000  1.000
     occupation matrix ns (before diag.):
       0.500  0.000  0.000
       0.000  0.500  0.000
       0.000  0.000  0.500
     ------------------------ ATOM   24 ------------------------
     Tr[ns( 24)] =   3.00000
     eigenvalues:
       0.500  0.500  0.500
     eigenvectors (columns):
       1.000  0.000  0.000
       0.000  1.000  0.000
       0.000  0.000  1.000
     occupation matrix ns (before diag.):
       0.500  0.000  0.000
       0.000  0.500  0.000
       0.000  0.000  0.500
     ------------------------ ATOM   25 ------------------------
     Tr[ns( 25)] =   1.00000
     eigenvalues:
       0.167  0.167  0.167
     eigenvectors (columns):
       1.000  0.000  0.000
       0.000  1.000  0.000
       0.000  0.000  1.000
     occupation matrix ns (before diag.):
       0.167  0.000  0.000
       0.000  0.167  0.000
       0.000  0.000  0.167
     ------------------------ ATOM   26 ------------------------
     Tr[ns( 26)] =   1.00000
     eigenvalues:
       0.167  0.167  0.167
     eigenvectors (columns):
       1.000  0.000  0.000
       0.000  1.000  0.000
       0.000  0.000  1.000
     occupation matrix ns (before diag.):
       0.167  0.000  0.000
       0.000  0.167  0.000
       0.000  0.000  0.167
     ------------------------ ATOM   27 ------------------------
     Tr[ns( 27)] =   1.00000
     eigenvalues:
       0.167  0.167  0.167
     eigenvectors (columns):
       1.000  0.000  0.000
       0.000  1.000  0.000
       0.000  0.000  1.000
     occupation matrix ns (before diag.):
       0.167  0.000  0.000
       0.000  0.167  0.000
       0.000  0.000  0.167
     ------------------------ ATOM   28 ------------------------
     Tr[ns( 28)] =   1.00000
     eigenvalues:
       0.167  0.167  0.167
     eigenvectors (columns):
       1.000  0.000  0.000
       0.000  1.000  0.000
       0.000  0.000  1.000
     occupation matrix ns (before diag.):
       0.167  0.000  0.000
       0.000  0.167  0.000
       0.000  0.000  0.167
     ------------------------ ATOM   29 ------------------------
     Tr[ns( 29)] =   3.00000
     eigenvalues:
       0.500  0.500  0.500
     eigenvectors (columns):
       1.000  0.000  0.000
       0.000  1.000  0.000
       0.000  0.000  1.000
     occupation matrix ns (before diag.):
       0.500  0.000  0.000
       0.000  0.500  0.000
       0.000  0.000  0.500
     ------------------------ ATOM   30 ------------------------
     Tr[ns( 30)] =   3.00000
     eigenvalues:
       0.500  0.500  0.500
     eigenvectors (columns):
       1.000  0.000  0.000
       0.000  1.000  0.000
       0.000  0.000  1.000
     occupation matrix ns (before diag.):
       0.500  0.000  0.000
       0.000  0.500  0.000
       0.000  0.000  0.500
     ------------------------ ATOM   31 ------------------------
     Tr[ns( 31)] =   3.00000
     eigenvalues:
       0.500  0.500  0.500
     eigenvectors (columns):
       1.000  0.000  0.000
       0.000  1.000  0.000
       0.000  0.000  1.000
     occupation matrix ns (before diag.):
       0.500  0.000  0.000
       0.000  0.500  0.000
       0.000  0.000  0.500
     ------------------------ ATOM   32 ------------------------
     Tr[ns( 32)] =   3.00000
     eigenvalues:
       0.500  0.500  0.500
     eigenvectors (columns):
       1.000  0.000  0.000
       0.000  1.000  0.000
       0.000  0.000  1.000
     occupation matrix ns (before diag.):
       0.500  0.000  0.000
       0.000  0.500  0.000
       0.000  0.000  0.500
     ------------------------ ATOM   33 ------------------------
     Tr[ns( 33)] =   1.00000
     eigenvalues:
       0.167  0.167  0.167
     eigenvectors (columns):
       1.000  0.000  0.000
       0.000  1.000  0.000
       0.000  0.000  1.000
     occupation matrix ns (before diag.):
       0.167  0.000  0.000
       0.000  0.167  0.000
       0.000  0.000  0.167
     ------------------------ ATOM   34 ------------------------
     Tr[ns( 34)] =   1.00000
     eigenvalues:
       0.167  0.167  0.167
     eigenvectors (columns):
       1.000  0.000  0.000
       0.000  1.000  0.000
       0.000  0.000  1.000
     occupation matrix ns (before diag.):
       0.167  0.000  0.000
       0.000  0.167  0.000
       0.000  0.000  0.167
     ------------------------ ATOM   35 ------------------------
     Tr[ns( 35)] =   1.00000
     eigenvalues:
       0.167  0.167  0.167
     eigenvectors (columns):
       1.000  0.000  0.000
       0.000  1.000  0.000
       0.000  0.000  1.000
     occupation matrix ns (before diag.):
       0.167  0.000  0.000
       0.000  0.167  0.000
       0.000  0.000  0.167
     ------------------------ ATOM   36 ------------------------
     Tr[ns( 36)] =   1.00000
     eigenvalues:
       0.167  0.167  0.167
     eigenvectors (columns):
       1.000  0.000  0.000
       0.000  1.000  0.000
       0.000  0.000  1.000
     occupation matrix ns (before diag.):
       0.167  0.000  0.000
       0.000  0.167  0.000
       0.000  0.000  0.167
     ------------------------ ATOM   37 ------------------------
     Tr[ns( 37)] =   3.00000
     eigenvalues:
       0.500  0.500  0.500
     eigenvectors (columns):
       1.000  0.000  0.000
       0.000  1.000  0.000
       0.000  0.000  1.000
     occupation matrix ns (before diag.):
       0.500  0.000  0.000
       0.000  0.500  0.000
       0.000  0.000  0.500
     ------------------------ ATOM   38 ------------------------
     Tr[ns( 38)] =   3.00000
     eigenvalues:
       0.500  0.500  0.500
     eigenvectors (columns):
       1.000  0.000  0.000
       0.000  1.000  0.000
       0.000  0.000  1.000
     occupation matrix ns (before diag.):
       0.500  0.000  0.000
       0.000  0.500  0.000
       0.000  0.000  0.500
     ------------------------ ATOM   39 ------------------------
     Tr[ns( 39)] =   3.00000
     eigenvalues:
       0.500  0.500  0.500
     eigenvectors (columns):
       1.000  0.000  0.000
       0.000  1.000  0.000
       0.000  0.000  1.000
     occupation matrix ns (before diag.):
       0.500  0.000  0.000
       0.000  0.500  0.000
       0.000  0.000  0.500
     ------------------------ ATOM   40 ------------------------
     Tr[ns( 40)] =   3.00000
     eigenvalues:
       0.500  0.500  0.500
     eigenvectors (columns):
       1.000  0.000  0.000
       0.000  1.000  0.000
       0.000  0.000  1.000
     occupation matrix ns (before diag.):
       0.500  0.000  0.000
       0.000  0.500  0.000
       0.000  0.000  0.500
     ------------------------ ATOM   41 ------------------------
     Tr[ns( 41)] =   1.00000
     eigenvalues:
       0.167  0.167  0.167
     eigenvectors (columns):
       1.000  0.000  0.000
       0.000  1.000  0.000
       0.000  0.000  1.000
     occupation matrix ns (before diag.):
       0.167  0.000  0.000
       0.000  0.167  0.000
       0.000  0.000  0.167
     ------------------------ ATOM   42 ------------------------
     Tr[ns( 42)] =   1.00000
     eigenvalues:
       0.167  0.167  0.167
     eigenvectors (columns):
       1.000  0.000  0.000
       0.000  1.000  0.000
       0.000  0.000  1.000
     occupation matrix ns (before diag.):
       0.167  0.000  0.000
       0.000  0.167  0.000
       0.000  0.000  0.167
     ------------------------ ATOM   43 ------------------------
     Tr[ns( 43)] =   1.00000
     eigenvalues:
       0.167  0.167  0.167
     eigenvectors (columns):
       1.000  0.000  0.000
       0.000  1.000  0.000
       0.000  0.000  1.000
     occupation matrix ns (before diag.):
       0.167  0.000  0.000
       0.000  0.167  0.000
       0.000  0.000  0.167
     ------------------------ ATOM   44 ------------------------
     Tr[ns( 44)] =   1.00000
     eigenvalues:
       0.167  0.167  0.167
     eigenvectors (columns):
       1.000  0.000  0.000
       0.000  1.000  0.000
       0.000  0.000  1.000
     occupation matrix ns (before diag.):
       0.167  0.000  0.000
       0.000  0.167  0.000
       0.000  0.000  0.167
     ------------------------ ATOM   45 ------------------------
     Tr[ns( 45)] =   3.00000
     eigenvalues:
       0.500  0.500  0.500
     eigenvectors (columns):
       1.000  0.000  0.000
       0.000  1.000  0.000
       0.000  0.000  1.000
     occupation matrix ns (before diag.):
       0.500  0.000  0.000
       0.000  0.500  0.000
       0.000  0.000  0.500
     ------------------------ ATOM   46 ------------------------
     Tr[ns( 46)] =   3.00000
     eigenvalues:
       0.500  0.500  0.500
     eigenvectors (columns):
       1.000  0.000  0.000
       0.000  1.000  0.000
       0.000  0.000  1.000
     occupation matrix ns (before diag.):
       0.500  0.000  0.000
       0.000  0.500  0.000
       0.000  0.000  0.500
     ------------------------ ATOM   47 ------------------------
     Tr[ns( 47)] =   3.00000
     eigenvalues:
       0.500  0.500  0.500
     eigenvectors (columns):
       1.000  0.000  0.000
       0.000  1.000  0.000
       0.000  0.000  1.000
     occupation matrix ns (before diag.):
       0.500  0.000  0.000
       0.000  0.500  0.000
       0.000  0.000  0.500
     ------------------------ ATOM   48 ------------------------
     Tr[ns( 48)] =   3.00000
     eigenvalues:
       0.500  0.500  0.500
     eigenvectors (columns):
       1.000  0.000  0.000
       0.000  1.000  0.000
       0.000  0.000  1.000
     occupation matrix ns (before diag.):
       0.500  0.000  0.000
       0.000  0.500  0.000
       0.000  0.000  0.500
     ------------------------ ATOM   49 ------------------------
     Tr[ns( 49)] =   1.00000
     eigenvalues:
       0.167  0.167  0.167
     eigenvectors (columns):
       1.000  0.000  0.000
       0.000  1.000  0.000
       0.000  0.000  1.000
     occupation matrix ns (before diag.):
       0.167  0.000  0.000
       0.000  0.167  0.000
       0.000  0.000  0.167
     ------------------------ ATOM   50 ------------------------
     Tr[ns( 50)] =   1.00000
     eigenvalues:
       0.167  0.167  0.167
     eigenvectors (columns):
       1.000  0.000  0.000
       0.000  1.000  0.000
       0.000  0.000  1.000
     occupation matrix ns (before diag.):
       0.167  0.000  0.000
       0.000  0.167  0.000
       0.000  0.000  0.167
     ------------------------ ATOM   51 ------------------------
     Tr[ns( 51)] =   1.00000
     eigenvalues:
       0.167  0.167  0.167
     eigenvectors (columns):
       1.000  0.000  0.000
       0.000  1.000  0.000
       0.000  0.000  1.000
     occupation matrix ns (before diag.):
       0.167  0.000  0.000
       0.000  0.167  0.000
       0.000  0.000  0.167
     ------------------------ ATOM   52 ------------------------
     Tr[ns( 52)] =   1.00000
     eigenvalues:
       0.167  0.167  0.167
     eigenvectors (columns):
       1.000  0.000  0.000
       0.000  1.000  0.000
       0.000  0.000  1.000
     occupation matrix ns (before diag.):
       0.167  0.000  0.000
       0.000  0.167  0.000
       0.000  0.000  0.167
     ------------------------ ATOM   53 ------------------------
     Tr[ns( 53)] =   3.00000
     eigenvalues:
       0.500  0.500  0.500
     eigenvectors (columns):
       1.000  0.000  0.000
       0.000  1.000  0.000
       0.000  0.000  1.000
     occupation matrix ns (before diag.):
       0.500  0.000  0.000
       0.000  0.500  0.000
       0.000  0.000  0.500
     ------------------------ ATOM   54 ------------------------
     Tr[ns( 54)] =   3.00000
     eigenvalues:
       0.500  0.500  0.500
     eigenvectors (columns):
       1.000  0.000  0.000
       0.000  1.000  0.000
       0.000  0.000  1.000
     occupation matrix ns (before diag.):
       0.500  0.000  0.000
       0.000  0.500  0.000
       0.000  0.000  0.500
     ------------------------ ATOM   55 ------------------------
     Tr[ns( 55)] =   3.00000
     eigenvalues:
       0.500  0.500  0.500
     eigenvectors (columns):
       1.000  0.000  0.000
       0.000  1.000  0.000
       0.000  0.000  1.000
     occupation matrix ns (before diag.):
       0.500  0.000  0.000
       0.000  0.500  0.000
       0.000  0.000  0.500
     ------------------------ ATOM   56 ------------------------
     Tr[ns( 56)] =   3.00000
     eigenvalues:
       0.500  0.500  0.500
     eigenvectors (columns):
       1.000  0.000  0.000
       0.000  1.000  0.000
       0.000  0.000  1.000
     occupation matrix ns (before diag.):
       0.500  0.000  0.000
       0.000  0.500  0.000
       0.000  0.000  0.500
     ------------------------ ATOM   57 ------------------------
     Tr[ns( 57)] =   1.00000
     eigenvalues:
       0.167  0.167  0.167
     eigenvectors (columns):
       1.000  0.000  0.000
       0.000  1.000  0.000
       0.000  0.000  1.000
     occupation matrix ns (before diag.):
       0.167  0.000  0.000
       0.000  0.167  0.000
       0.000  0.000  0.167
     ------------------------ ATOM   58 ------------------------
     Tr[ns( 58)] =   1.00000
     eigenvalues:
       0.167  0.167  0.167
     eigenvectors (columns):
       1.000  0.000  0.000
       0.000  1.000  0.000
       0.000  0.000  1.000
     occupation matrix ns (before diag.):
       0.167  0.000  0.000
       0.000  0.167  0.000
       0.000  0.000  0.167
     ------------------------ ATOM   59 ------------------------
     Tr[ns( 59)] =   1.00000
     eigenvalues:
       0.167  0.167  0.167
     eigenvectors (columns):
       1.000  0.000  0.000
       0.000  1.000  0.000
       0.000  0.000  1.000
     occupation matrix ns (before diag.):
       0.167  0.000  0.000
       0.000  0.167  0.000
       0.000  0.000  0.167
     ------------------------ ATOM   60 ------------------------
     Tr[ns( 60)] =   1.00000
     eigenvalues:
       0.167  0.167  0.167
     eigenvectors (columns):
       1.000  0.000  0.000
       0.000  1.000  0.000
       0.000  0.000  1.000
     occupation matrix ns (before diag.):
       0.167  0.000  0.000
       0.000  0.167  0.000
       0.000  0.000  0.167
     ------------------------ ATOM   61 ------------------------
     Tr[ns( 61)] =   3.00000
     eigenvalues:
       0.500  0.500  0.500
     eigenvectors (columns):
       1.000  0.000  0.000
       0.000  1.000  0.000
       0.000  0.000  1.000
     occupation matrix ns (before diag.):
       0.500  0.000  0.000
       0.000  0.500  0.000
       0.000  0.000  0.500
     ------------------------ ATOM   62 ------------------------
     Tr[ns( 62)] =   3.00000
     eigenvalues:
       0.500  0.500  0.500
     eigenvectors (columns):
       1.000  0.000  0.000
       0.000  1.000  0.000
       0.000  0.000  1.000
     occupation matrix ns (before diag.):
       0.500  0.000  0.000
       0.000  0.500  0.000
       0.000  0.000  0.500
     ------------------------ ATOM   63 ------------------------
     Tr[ns( 63)] =   3.00000
     eigenvalues:
       0.500  0.500  0.500
     eigenvectors (columns):
       1.000  0.000  0.000
       0.000  1.000  0.000
       0.000  0.000  1.000
     occupation matrix ns (before diag.):
       0.500  0.000  0.000
       0.000  0.500  0.000
       0.000  0.000  0.500
     ------------------------ ATOM   64 ------------------------
     Tr[ns( 64)] =   3.00000
     eigenvalues:
       0.500  0.500  0.500
     eigenvectors (columns):
       1.000  0.000  0.000
       0.000  1.000  0.000
       0.000  0.000  1.000
     occupation matrix ns (before diag.):
       0.500  0.000  0.000
       0.000  0.500  0.000
       0.000  0.000  0.500
     ------------------------ ATOM   65 ------------------------
     Tr[ns( 65)] =   1.00000
     eigenvalues:
       0.167  0.167  0.167
     eigenvectors (columns):
       1.000  0.000  0.000
       0.000  1.000  0.000
       0.000  0.000  1.000
     occupation matrix ns (before diag.):
       0.167  0.000  0.000
       0.000  0.167  0.000
       0.000  0.000  0.167
     ------------------------ ATOM   66 ------------------------
     Tr[ns( 66)] =   1.00000
     eigenvalues:
       0.167  0.167  0.167
     eigenvectors (columns):
       1.000  0.000  0.000
       0.000  1.000  0.000
       0.000  0.000  1.000
     occupation matrix ns (before diag.):
       0.167  0.000  0.000
       0.000  0.167  0.000
       0.000  0.000  0.167
     ------------------------ ATOM   67 ------------------------
     Tr[ns( 67)] =   1.00000
     eigenvalues:
       0.167  0.167  0.167
     eigenvectors (columns):
       1.000  0.000  0.000
       0.000  1.000  0.000
       0.000  0.000  1.000
     occupation matrix ns (before diag.):
       0.167  0.000  0.000
       0.000  0.167  0.000
       0.000  0.000  0.167
     ------------------------ ATOM   68 ------------------------
     Tr[ns( 68)] =   1.00000
     eigenvalues:
       0.167  0.167  0.167
     eigenvectors (columns):
       1.000  0.000  0.000
       0.000  1.000  0.000
       0.000  0.000  1.000
     occupation matrix ns (before diag.):
       0.167  0.000  0.000
       0.000  0.167  0.000
       0.000  0.000  0.167
     ------------------------ ATOM   69 ------------------------
     Tr[ns( 69)] =   3.00000
     eigenvalues:
       0.500  0.500  0.500
     eigenvectors (columns):
       1.000  0.000  0.000
       0.000  1.000  0.000
       0.000  0.000  1.000
     occupation matrix ns (before diag.):
       0.500  0.000  0.000
       0.000  0.500  0.000
       0.000  0.000  0.500
     ------------------------ ATOM   70 ------------------------
     Tr[ns( 70)] =   3.00000
     eigenvalues:
       0.500  0.500  0.500
     eigenvectors (columns):
       1.000  0.000  0.000
       0.000  1.000  0.000
       0.000  0.000  1.000
     occupation matrix ns (before diag.):
       0.500  0.000  0.000
       0.000  0.500  0.000
       0.000  0.000  0.500
     ------------------------ ATOM   71 ------------------------
     Tr[ns( 71)] =   3.00000
     eigenvalues:
       0.500  0.500  0.500
     eigenvectors (columns):
       1.000  0.000  0.000
       0.000  1.000  0.000
       0.000  0.000  1.000
     occupation matrix ns (before diag.):
       0.500  0.000  0.000
       0.000  0.500  0.000
       0.000  0.000  0.500
     ------------------------ ATOM   72 ------------------------
     Tr[ns( 72)] =   3.00000
     eigenvalues:
       0.500  0.500  0.500
     eigenvectors (columns):
       1.000  0.000  0.000
       0.000  1.000  0.000
       0.000  0.000  1.000
     occupation matrix ns (before diag.):
       0.500  0.000  0.000
       0.000  0.500  0.000
       0.000  0.000  0.500
     ------------------------ ATOM   73 ------------------------
     Tr[ns( 73)] =   1.00000
     eigenvalues:
       0.167  0.167  0.167
     eigenvectors (columns):
       1.000  0.000  0.000
       0.000  1.000  0.000
       0.000  0.000  1.000
     occupation matrix ns (before diag.):
       0.167  0.000  0.000
       0.000  0.167  0.000
       0.000  0.000  0.167
     ------------------------ ATOM   74 ------------------------
     Tr[ns( 74)] =   1.00000
     eigenvalues:
       0.167  0.167  0.167
     eigenvectors (columns):
       1.000  0.000  0.000
       0.000  1.000  0.000
       0.000  0.000  1.000
     occupation matrix ns (before diag.):
       0.167  0.000  0.000
       0.000  0.167  0.000
       0.000  0.000  0.167
     ------------------------ ATOM   75 ------------------------
     Tr[ns( 75)] =   1.00000
     eigenvalues:
       0.167  0.167  0.167
     eigenvectors (columns):
       1.000  0.000  0.000
       0.000  1.000  0.000
       0.000  0.000  1.000
     occupation matrix ns (before diag.):
       0.167  0.000  0.000
       0.000  0.167  0.000
       0.000  0.000  0.167
     ------------------------ ATOM   76 ------------------------
     Tr[ns( 76)] =   1.00000
     eigenvalues:
       0.167  0.167  0.167
     eigenvectors (columns):
       1.000  0.000  0.000
       0.000  1.000  0.000
       0.000  0.000  1.000
     occupation matrix ns (before diag.):
       0.167  0.000  0.000
       0.000  0.167  0.000
       0.000  0.000  0.167
     ------------------------ ATOM   77 ------------------------
     Tr[ns( 77)] =   3.00000
     eigenvalues:
       0.500  0.500  0.500
     eigenvectors (columns):
       1.000  0.000  0.000
       0.000  1.000  0.000
       0.000  0.000  1.000
     occupation matrix ns (before diag.):
       0.500  0.000  0.000
       0.000  0.500  0.000
       0.000  0.000  0.500
     ------------------------ ATOM   78 ------------------------
     Tr[ns( 78)] =   3.00000
     eigenvalues:
       0.500  0.500  0.500
     eigenvectors (columns):
       1.000  0.000  0.000
       0.000  1.000  0.000
       0.000  0.000  1.000
     occupation matrix ns (before diag.):
       0.500  0.000  0.000
       0.000  0.500  0.000
       0.000  0.000  0.500
     ------------------------ ATOM   79 ------------------------
     Tr[ns( 79)] =   3.00000
     eigenvalues:
       0.500  0.500  0.500
     eigenvectors (columns):
       1.000  0.000  0.000
       0.000  1.000  0.000
       0.000  0.000  1.000
     occupation matrix ns (before diag.):
       0.500  0.000  0.000
       0.000  0.500  0.000
       0.000  0.000  0.500
     ------------------------ ATOM   80 ------------------------
     Tr[ns( 80)] =   3.00000
     eigenvalues:
       0.500  0.500  0.500
     eigenvectors (columns):
       1.000  0.000  0.000
       0.000  1.000  0.000
       0.000  0.000  1.000
     occupation matrix ns (before diag.):
       0.500  0.000  0.000
       0.000  0.500  0.000
       0.000  0.000  0.500
     ------------------------ ATOM   81 ------------------------
     Tr[ns( 81)] =   1.00000
     eigenvalues:
       0.167  0.167  0.167
     eigenvectors (columns):
       1.000  0.000  0.000
       0.000  1.000  0.000
       0.000  0.000  1.000
     occupation matrix ns (before diag.):
       0.167  0.000  0.000
       0.000  0.167  0.000
       0.000  0.000  0.167
     ------------------------ ATOM   82 ------------------------
     Tr[ns( 82)] =   1.00000
     eigenvalues:
       0.167  0.167  0.167
     eigenvectors (columns):
       1.000  0.000  0.000
       0.000  1.000  0.000
       0.000  0.000  1.000
     occupation matrix ns (before diag.):
       0.167  0.000  0.000
       0.000  0.167  0.000
       0.000  0.000  0.167
     ------------------------ ATOM   83 ------------------------
     Tr[ns( 83)] =   1.00000
     eigenvalues:
       0.167  0.167  0.167
     eigenvectors (columns):
       1.000  0.000  0.000
       0.000  1.000  0.000
       0.000  0.000  1.000
     occupation matrix ns (before diag.):
       0.167  0.000  0.000
       0.000  0.167  0.000
       0.000  0.000  0.167
     ------------------------ ATOM   84 ------------------------
     Tr[ns( 84)] =   1.00000
     eigenvalues:
       0.167  0.167  0.167
     eigenvectors (columns):
       1.000  0.000  0.000
       0.000  1.000  0.000
       0.000  0.000  1.000
     occupation matrix ns (before diag.):
       0.167  0.000  0.000
       0.000  0.167  0.000
       0.000  0.000  0.167
     ------------------------ ATOM   85 ------------------------
     Tr[ns( 85)] =   3.00000
     eigenvalues:
       0.500  0.500  0.500
     eigenvectors (columns):
       1.000  0.000  0.000
       0.000  1.000  0.000
       0.000  0.000  1.000
     occupation matrix ns (before diag.):
       0.500  0.000  0.000
       0.000  0.500  0.000
       0.000  0.000  0.500
     ------------------------ ATOM   86 ------------------------
     Tr[ns( 86)] =   3.00000
     eigenvalues:
       0.500  0.500  0.500
     eigenvectors (columns):
       1.000  0.000  0.000
       0.000  1.000  0.000
       0.000  0.000  1.000
     occupation matrix ns (before diag.):
       0.500  0.000  0.000
       0.000  0.500  0.000
       0.000  0.000  0.500
     ------------------------ ATOM   87 ------------------------
     Tr[ns( 87)] =   3.00000
     eigenvalues:
       0.500  0.500  0.500
     eigenvectors (columns):
       1.000  0.000  0.000
       0.000  1.000  0.000
       0.000  0.000  1.000
     occupation matrix ns (before diag.):
       0.500  0.000  0.000
       0.000  0.500  0.000
       0.000  0.000  0.500
     ------------------------ ATOM   88 ------------------------
     Tr[ns( 88)] =   3.00000
     eigenvalues:
       0.500  0.500  0.500
     eigenvectors (columns):
       1.000  0.000  0.000
       0.000  1.000  0.000
       0.000  0.000  1.000
     occupation matrix ns (before diag.):
       0.500  0.000  0.000
       0.000  0.500  0.000
       0.000  0.000  0.500
     ------------------------ ATOM   89 ------------------------
     Tr[ns( 89)] =   1.00000
     eigenvalues:
       0.167  0.167  0.167
     eigenvectors (columns):
       1.000  0.000  0.000
       0.000  1.000  0.000
       0.000  0.000  1.000
     occupation matrix ns (before diag.):
       0.167  0.000  0.000
       0.000  0.167  0.000
       0.000  0.000  0.167
     ------------------------ ATOM   90 ------------------------
     Tr[ns( 90)] =   1.00000
     eigenvalues:
       0.167  0.167  0.167
     eigenvectors (columns):
       1.000  0.000  0.000
       0.000  1.000  0.000
       0.000  0.000  1.000
     occupation matrix ns (before diag.):
       0.167  0.000  0.000
       0.000  0.167  0.000
       0.000  0.000  0.167
     ------------------------ ATOM   91 ------------------------
     Tr[ns( 91)] =   1.00000
     eigenvalues:
       0.167  0.167  0.167
     eigenvectors (columns):
       1.000  0.000  0.000
       0.000  1.000  0.000
       0.000  0.000  1.000
     occupation matrix ns (before diag.):
       0.167  0.000  0.000
       0.000  0.167  0.000
       0.000  0.000  0.167
     ------------------------ ATOM   92 ------------------------
     Tr[ns( 92)] =   1.00000
     eigenvalues:
       0.167  0.167  0.167
     eigenvectors (columns):
       1.000  0.000  0.000
       0.000  1.000  0.000
       0.000  0.000  1.000
     occupation matrix ns (before diag.):
       0.167  0.000  0.000
       0.000  0.167  0.000
       0.000  0.000  0.167
     ------------------------ ATOM   93 ------------------------
     Tr[ns( 93)] =   3.00000
     eigenvalues:
       0.500  0.500  0.500
     eigenvectors (columns):
       1.000  0.000  0.000
       0.000  1.000  0.000
       0.000  0.000  1.000
     occupation matrix ns (before diag.):
       0.500  0.000  0.000
       0.000  0.500  0.000
       0.000  0.000  0.500
     ------------------------ ATOM   94 ------------------------
     Tr[ns( 94)] =   3.00000
     eigenvalues:
       0.500  0.500  0.500
     eigenvectors (columns):
       1.000  0.000  0.000
       0.000  1.000  0.000
       0.000  0.000  1.000
     occupation matrix ns (before diag.):
       0.500  0.000  0.000
       0.000  0.500  0.000
       0.000  0.000  0.500
     ------------------------ ATOM   95 ------------------------
     Tr[ns( 95)] =   3.00000
     eigenvalues:
       0.500  0.500  0.500
     eigenvectors (columns):
       1.000  0.000  0.000
       0.000  1.000  0.000
       0.000  0.000  1.000
     occupation matrix ns (before diag.):
       0.500  0.000  0.000
       0.000  0.500  0.000
       0.000  0.000  0.500
     ------------------------ ATOM   96 ------------------------
     Tr[ns( 96)] =   3.00000
     eigenvalues:
       0.500  0.500  0.500
     eigenvectors (columns):
       1.000  0.000  0.000
       0.000  1.000  0.000
       0.000  0.000  1.000
     occupation matrix ns (before diag.):
       0.500  0.000  0.000
       0.000  0.500  0.000
       0.000  0.000  0.500
     ------------------------ ATOM   97 ------------------------
     Tr[ns( 97)] =   1.00000
     eigenvalues:
       0.167  0.167  0.167
     eigenvectors (columns):
       1.000  0.000  0.000
       0.000  1.000  0.000
       0.000  0.000  1.000
     occupation matrix ns (before diag.):
       0.167  0.000  0.000
       0.000  0.167  0.000
       0.000  0.000  0.167
     ------------------------ ATOM   98 ------------------------
     Tr[ns( 98)] =   1.00000
     eigenvalues:
       0.167  0.167  0.167
     eigenvectors (columns):
       1.000  0.000  0.000
       0.000  1.000  0.000
       0.000  0.000  1.000
     occupation matrix ns (before diag.):
       0.167  0.000  0.000
       0.000  0.167  0.000
       0.000  0.000  0.167
     ------------------------ ATOM   99 ------------------------
     Tr[ns( 99)] =   1.00000
     eigenvalues:
       0.167  0.167  0.167
     eigenvectors (columns):
       1.000  0.000  0.000
       0.000  1.000  0.000
       0.000  0.000  1.000
     occupation matrix ns (before diag.):
       0.167  0.000  0.000
       0.000  0.167  0.000
       0.000  0.000  0.167
     ------------------------ ATOM  100 ------------------------
     Tr[ns(100)] =   1.00000
     eigenvalues:
       0.167  0.167  0.167
     eigenvectors (columns):
       1.000  0.000  0.000
       0.000  1.000  0.000
       0.000  0.000  1.000
     occupation matrix ns (before diag.):
       0.167  0.000  0.000
       0.000  0.167  0.000
       0.000  0.000  0.167
     ------------------------ ATOM  101 ------------------------
     Tr[ns(101)] =   3.00000
     eigenvalues:
       0.500  0.500  0.500
     eigenvectors (columns):
       1.000  0.000  0.000
       0.000  1.000  0.000
       0.000  0.000  1.000
     occupation matrix ns (before diag.):
       0.500  0.000  0.000
       0.000  0.500  0.000
       0.000  0.000  0.500
     ------------------------ ATOM  102 ------------------------
     Tr[ns(102)] =   3.00000
     eigenvalues:
       0.500  0.500  0.500
     eigenvectors (columns):
       1.000  0.000  0.000
       0.000  1.000  0.000
       0.000  0.000  1.000
     occupation matrix ns (before diag.):
       0.500  0.000  0.000
       0.000  0.500  0.000
       0.000  0.000  0.500
     ------------------------ ATOM  103 ------------------------
     Tr[ns(103)] =   3.00000
     eigenvalues:
       0.500  0.500  0.500
     eigenvectors (columns):
       1.000  0.000  0.000
       0.000  1.000  0.000
       0.000  0.000  1.000
     occupation matrix ns (before diag.):
       0.500  0.000  0.000
       0.000  0.500  0.000
       0.000  0.000  0.500
     ------------------------ ATOM  104 ------------------------
     Tr[ns(104)] =   3.00000
     eigenvalues:
       0.500  0.500  0.500
     eigenvectors (columns):
       1.000  0.000  0.000
       0.000  1.000  0.000
       0.000  0.000  1.000
     occupation matrix ns (before diag.):
       0.500  0.000  0.000
       0.000  0.500  0.000
       0.000  0.000  0.500
     ------------------------ ATOM  105 ------------------------
     Tr[ns(105)] =   1.00000
     eigenvalues:
       0.167  0.167  0.167
     eigenvectors (columns):
       1.000  0.000  0.000
       0.000  1.000  0.000
       0.000  0.000  1.000
     occupation matrix ns (before diag.):
       0.167  0.000  0.000
       0.000  0.167  0.000
       0.000  0.000  0.167
     ------------------------ ATOM  106 ------------------------
     Tr[ns(106)] =   1.00000
     eigenvalues:
       0.167  0.167  0.167
     eigenvectors (columns):
       1.000  0.000  0.000
       0.000  1.000  0.000
       0.000  0.000  1.000
     occupation matrix ns (before diag.):
       0.167  0.000  0.000
       0.000  0.167  0.000
       0.000  0.000  0.167
     ------------------------ ATOM  107 ------------------------
     Tr[ns(107)] =   1.00000
     eigenvalues:
       0.167  0.167  0.167
     eigenvectors (columns):
       1.000  0.000  0.000
       0.000  1.000  0.000
       0.000  0.000  1.000
     occupation matrix ns (before diag.):
       0.167  0.000  0.000
       0.000  0.167  0.000
       0.000  0.000  0.167
     ------------------------ ATOM  108 ------------------------
     Tr[ns(108)] =   1.00000
     eigenvalues:
       0.167  0.167  0.167
     eigenvectors (columns):
       1.000  0.000  0.000
       0.000  1.000  0.000
       0.000  0.000  1.000
     occupation matrix ns (before diag.):
       0.167  0.000  0.000
       0.000  0.167  0.000
       0.000  0.000  0.167
     ------------------------ ATOM  109 ------------------------
     Tr[ns(109)] =   3.00000
     eigenvalues:
       0.500  0.500  0.500
     eigenvectors (columns):
       1.000  0.000  0.000
       0.000  1.000  0.000
       0.000  0.000  1.000
     occupation matrix ns (before diag.):
       0.500  0.000  0.000
       0.000  0.500  0.000
       0.000  0.000  0.500
     ------------------------ ATOM  110 ------------------------
     Tr[ns(110)] =   3.00000
     eigenvalues:
       0.500  0.500  0.500
     eigenvectors (columns):
       1.000  0.000  0.000
       0.000  1.000  0.000
       0.000  0.000  1.000
     occupation matrix ns (before diag.):
       0.500  0.000  0.000
       0.000  0.500  0.000
       0.000  0.000  0.500
     ------------------------ ATOM  111 ------------------------
     Tr[ns(111)] =   3.00000
     eigenvalues:
       0.500  0.500  0.500
     eigenvectors (columns):
       1.000  0.000  0.000
       0.000  1.000  0.000
       0.000  0.000  1.000
     occupation matrix ns (before diag.):
       0.500  0.000  0.000
       0.000  0.500  0.000
       0.000  0.000  0.500
     ------------------------ ATOM  112 ------------------------
     Tr[ns(112)] =   3.00000
     eigenvalues:
       0.500  0.500  0.500
     eigenvectors (columns):
       1.000  0.000  0.000
       0.000  1.000  0.000
       0.000  0.000  1.000
     occupation matrix ns (before diag.):
       0.500  0.000  0.000
       0.000  0.500  0.000
       0.000  0.000  0.500
     ------------------------ ATOM  113 ------------------------
     Tr[ns(113)] =   1.00000
     eigenvalues:
       0.167  0.167  0.167
     eigenvectors (columns):
       1.000  0.000  0.000
       0.000  1.000  0.000
       0.000  0.000  1.000
     occupation matrix ns (before diag.):
       0.167  0.000  0.000
       0.000  0.167  0.000
       0.000  0.000  0.167
     ------------------------ ATOM  114 ------------------------
     Tr[ns(114)] =   1.00000
     eigenvalues:
       0.167  0.167  0.167
     eigenvectors (columns):
       1.000  0.000  0.000
       0.000  1.000  0.000
       0.000  0.000  1.000
     occupation matrix ns (before diag.):
       0.167  0.000  0.000
       0.000  0.167  0.000
       0.000  0.000  0.167
     ------------------------ ATOM  115 ------------------------
     Tr[ns(115)] =   1.00000
     eigenvalues:
       0.167  0.167  0.167
     eigenvectors (columns):
       1.000  0.000  0.000
       0.000  1.000  0.000
       0.000  0.000  1.000
     occupation matrix ns (before diag.):
       0.167  0.000  0.000
       0.000  0.167  0.000
       0.000  0.000  0.167
     ------------------------ ATOM  116 ------------------------
     Tr[ns(116)] =   1.00000
     eigenvalues:
       0.167  0.167  0.167
     eigenvectors (columns):
       1.000  0.000  0.000
       0.000  1.000  0.000
       0.000  0.000  1.000
     occupation matrix ns (before diag.):
       0.167  0.000  0.000
       0.000  0.167  0.000
       0.000  0.000  0.167
     ------------------------ ATOM  117 ------------------------
     Tr[ns(117)] =   3.00000
     eigenvalues:
       0.500  0.500  0.500
     eigenvectors (columns):
       1.000  0.000  0.000
       0.000  1.000  0.000
       0.000  0.000  1.000
     occupation matrix ns (before diag.):
       0.500  0.000  0.000
       0.000  0.500  0.000
       0.000  0.000  0.500
     ------------------------ ATOM  118 ------------------------
     Tr[ns(118)] =   3.00000
     eigenvalues:
       0.500  0.500  0.500
     eigenvectors (columns):
       1.000  0.000  0.000
       0.000  1.000  0.000
       0.000  0.000  1.000
     occupation matrix ns (before diag.):
       0.500  0.000  0.000
       0.000  0.500  0.000
       0.000  0.000  0.500
     ------------------------ ATOM  119 ------------------------
     Tr[ns(119)] =   3.00000
     eigenvalues:
       0.500  0.500  0.500
     eigenvectors (columns):
       1.000  0.000  0.000
       0.000  1.000  0.000
       0.000  0.000  1.000
     occupation matrix ns (before diag.):
       0.500  0.000  0.000
       0.000  0.500  0.000
       0.000  0.000  0.500
     ------------------------ ATOM  120 ------------------------
     Tr[ns(120)] =   3.00000
     eigenvalues:
       0.500  0.500  0.500
     eigenvectors (columns):
       1.000  0.000  0.000
       0.000  1.000  0.000
       0.000  0.000  1.000
     occupation matrix ns (before diag.):
       0.500  0.000  0.000
       0.000  0.500  0.000
       0.000  0.000  0.500
     ------------------------ ATOM  121 ------------------------
     Tr[ns(121)] =   1.00000
     eigenvalues:
       0.167  0.167  0.167
     eigenvectors (columns):
       1.000  0.000  0.000
       0.000  1.000  0.000
       0.000  0.000  1.000
     occupation matrix ns (before diag.):
       0.167  0.000  0.000
       0.000  0.167  0.000
       0.000  0.000  0.167
     ------------------------ ATOM  122 ------------------------
     Tr[ns(122)] =   1.00000
     eigenvalues:
       0.167  0.167  0.167
     eigenvectors (columns):
       1.000  0.000  0.000
       0.000  1.000  0.000
       0.000  0.000  1.000
     occupation matrix ns (before diag.):
       0.167  0.000  0.000
       0.000  0.167  0.000
       0.000  0.000  0.167
     ------------------------ ATOM  123 ------------------------
     Tr[ns(123)] =   1.00000
     eigenvalues:
       0.167  0.167  0.167
     eigenvectors (columns):
       1.000  0.000  0.000
       0.000  1.000  0.000
       0.000  0.000  1.000
     occupation matrix ns (before diag.):
       0.167  0.000  0.000
       0.000  0.167  0.000
       0.000  0.000  0.167
     ------------------------ ATOM  124 ------------------------
     Tr[ns(124)] =   1.00000
     eigenvalues:
       0.167  0.167  0.167
     eigenvectors (columns):
       1.000  0.000  0.000
       0.000  1.000  0.000
       0.000  0.000  1.000
     occupation matrix ns (before diag.):
       0.167  0.000  0.000
       0.000  0.167  0.000
       0.000  0.000  0.167
     ------------------------ ATOM  125 ------------------------
     Tr[ns(125)] =   3.00000
     eigenvalues:
       0.500  0.500  0.500
     eigenvectors (columns):
       1.000  0.000  0.000
       0.000  1.000  0.000
       0.000  0.000  1.000
     occupation matrix ns (before diag.):
       0.500  0.000  0.000
       0.000  0.500  0.000
       0.000  0.000  0.500
     ------------------------ ATOM  126 ------------------------
     Tr[ns(126)] =   3.00000
     eigenvalues:
       0.500  0.500  0.500
     eigenvectors (columns):
       1.000  0.000  0.000
       0.000  1.000  0.000
       0.000  0.000  1.000
     occupation matrix ns (before diag.):
       0.500  0.000  0.000
       0.000  0.500  0.000
       0.000  0.000  0.500
     ------------------------ ATOM  127 ------------------------
     Tr[ns(127)] =   3.00000
     eigenvalues:
       0.500  0.500  0.500
     eigenvectors (columns):
       1.000  0.000  0.000
       0.000  1.000  0.000
       0.000  0.000  1.000
     occupation matrix ns (before diag.):
       0.500  0.000  0.000
       0.000  0.500  0.000
       0.000  0.000  0.500
     ------------------------ ATOM  128 ------------------------
     Tr[ns(128)] =   3.00000
     eigenvalues:
       0.500  0.500  0.500
     eigenvectors (columns):
       1.000  0.000  0.000
       0.000  1.000  0.000
       0.000  0.000  1.000
     occupation matrix ns (before diag.):
       0.500  0.000  0.000
       0.000  0.500  0.000
       0.000  0.000  0.500
     ------------------------ ATOM  129 ------------------------
     Tr[ns(129)] =   1.00000
     eigenvalues:
       0.167  0.167  0.167
     eigenvectors (columns):
       1.000  0.000  0.000
       0.000  1.000  0.000
       0.000  0.000  1.000
     occupation matrix ns (before diag.):
       0.167  0.000  0.000
       0.000  0.167  0.000
       0.000  0.000  0.167
     ------------------------ ATOM  130 ------------------------
     Tr[ns(130)] =   1.00000
     eigenvalues:
       0.167  0.167  0.167
     eigenvectors (columns):
       1.000  0.000  0.000
       0.000  1.000  0.000
       0.000  0.000  1.000
     occupation matrix ns (before diag.):
       0.167  0.000  0.000
       0.000  0.167  0.000
       0.000  0.000  0.167
     ------------------------ ATOM  131 ------------------------
     Tr[ns(131)] =   1.00000
     eigenvalues:
       0.167  0.167  0.167
     eigenvectors (columns):
       1.000  0.000  0.000
       0.000  1.000  0.000
       0.000  0.000  1.000
     occupation matrix ns (before diag.):
       0.167  0.000  0.000
       0.000  0.167  0.000
       0.000  0.000  0.167
     ------------------------ ATOM  132 ------------------------
     Tr[ns(132)] =   1.00000
     eigenvalues:
       0.167  0.167  0.167
     eigenvectors (columns):
       1.000  0.000  0.000
       0.000  1.000  0.000
       0.000  0.000  1.000
     occupation matrix ns (before diag.):
       0.167  0.000  0.000
       0.000  0.167  0.000
       0.000  0.000  0.167
     ------------------------ ATOM  133 ------------------------
     Tr[ns(133)] =   3.00000
     eigenvalues:
       0.500  0.500  0.500
     eigenvectors (columns):
       1.000  0.000  0.000
       0.000  1.000  0.000
       0.000  0.000  1.000
     occupation matrix ns (before diag.):
       0.500  0.000  0.000
       0.000  0.500  0.000
       0.000  0.000  0.500
     ------------------------ ATOM  134 ------------------------
     Tr[ns(134)] =   3.00000
     eigenvalues:
       0.500  0.500  0.500
     eigenvectors (columns):
       1.000  0.000  0.000
       0.000  1.000  0.000
       0.000  0.000  1.000
     occupation matrix ns (before diag.):
       0.500  0.000  0.000
       0.000  0.500  0.000
       0.000  0.000  0.500
     ------------------------ ATOM  135 ------------------------
     Tr[ns(135)] =   3.00000
     eigenvalues:
       0.500  0.500  0.500
     eigenvectors (columns):
       1.000  0.000  0.000
       0.000  1.000  0.000
       0.000  0.000  1.000
     occupation matrix ns (before diag.):
       0.500  0.000  0.000
       0.000  0.500  0.000
       0.000  0.000  0.500
     ------------------------ ATOM  136 ------------------------
     Tr[ns(136)] =   3.00000
     eigenvalues:
       0.500  0.500  0.500
     eigenvectors (columns):
       1.000  0.000  0.000
       0.000  1.000  0.000
       0.000  0.000  1.000
     occupation matrix ns (before diag.):
       0.500  0.000  0.000
       0.000  0.500  0.000
       0.000  0.000  0.500
     ------------------------ ATOM  137 ------------------------
     Tr[ns(137)] =   1.00000
     eigenvalues:
       0.167  0.167  0.167
     eigenvectors (columns):
       1.000  0.000  0.000
       0.000  1.000  0.000
       0.000  0.000  1.000
     occupation matrix ns (before diag.):
       0.167  0.000  0.000
       0.000  0.167  0.000
       0.000  0.000  0.167
     ------------------------ ATOM  138 ------------------------
     Tr[ns(138)] =   1.00000
     eigenvalues:
       0.167  0.167  0.167
     eigenvectors (columns):
       1.000  0.000  0.000
       0.000  1.000  0.000
       0.000  0.000  1.000
     occupation matrix ns (before diag.):
       0.167  0.000  0.000
       0.000  0.167  0.000
       0.000  0.000  0.167
     ------------------------ ATOM  139 ------------------------
     Tr[ns(139)] =   1.00000
     eigenvalues:
       0.167  0.167  0.167
     eigenvectors (columns):
       1.000  0.000  0.000
       0.000  1.000  0.000
       0.000  0.000  1.000
     occupation matrix ns (before diag.):
       0.167  0.000  0.000
       0.000  0.167  0.000
       0.000  0.000  0.167
     ------------------------ ATOM  140 ------------------------
     Tr[ns(140)] =   1.00000
     eigenvalues:
       0.167  0.167  0.167
     eigenvectors (columns):
       1.000  0.000  0.000
       0.000  1.000  0.000
       0.000  0.000  1.000
     occupation matrix ns (before diag.):
       0.167  0.000  0.000
       0.000  0.167  0.000
       0.000  0.000  0.167
     ------------------------ ATOM  141 ------------------------
     Tr[ns(141)] =   3.00000
     eigenvalues:
       0.500  0.500  0.500
     eigenvectors (columns):
       1.000  0.000  0.000
       0.000  1.000  0.000
       0.000  0.000  1.000
     occupation matrix ns (before diag.):
       0.500  0.000  0.000
       0.000  0.500  0.000
       0.000  0.000  0.500
     ------------------------ ATOM  142 ------------------------
     Tr[ns(142)] =   3.00000
     eigenvalues:
       0.500  0.500  0.500
     eigenvectors (columns):
       1.000  0.000  0.000
       0.000  1.000  0.000
       0.000  0.000  1.000
     occupation matrix ns (before diag.):
       0.500  0.000  0.000
       0.000  0.500  0.000
       0.000  0.000  0.500
     ------------------------ ATOM  143 ------------------------
     Tr[ns(143)] =   3.00000
     eigenvalues:
       0.500  0.500  0.500
     eigenvectors (columns):
       1.000  0.000  0.000
       0.000  1.000  0.000
       0.000  0.000  1.000
     occupation matrix ns (before diag.):
       0.500  0.000  0.000
       0.000  0.500  0.000
       0.000  0.000  0.500
     ------------------------ ATOM  144 ------------------------
     Tr[ns(144)] =   3.00000
     eigenvalues:
       0.500  0.500  0.500
     eigenvectors (columns):
       1.000  0.000  0.000
       0.000  1.000  0.000
       0.000  0.000  1.000
     occupation matrix ns (before diag.):
       0.500  0.000  0.000
       0.000  0.500  0.000
       0.000  0.000  0.500
     ------------------------ ATOM  145 ------------------------
     Tr[ns(145)] =   1.00000
     eigenvalues:
       0.167  0.167  0.167
     eigenvectors (columns):
       1.000  0.000  0.000
       0.000  1.000  0.000
       0.000  0.000  1.000
     occupation matrix ns (before diag.):
       0.167  0.000  0.000
       0.000  0.167  0.000
       0.000  0.000  0.167
     ------------------------ ATOM  146 ------------------------
     Tr[ns(146)] =   1.00000
     eigenvalues:
       0.167  0.167  0.167
     eigenvectors (columns):
       1.000  0.000  0.000
       0.000  1.000  0.000
       0.000  0.000  1.000
     occupation matrix ns (before diag.):
       0.167  0.000  0.000
       0.000  0.167  0.000
       0.000  0.000  0.167
     ------------------------ ATOM  147 ------------------------
     Tr[ns(147)] =   1.00000
     eigenvalues:
       0.167  0.167  0.167
     eigenvectors (columns):
       1.000  0.000  0.000
       0.000  1.000  0.000
       0.000  0.000  1.000
     occupation matrix ns (before diag.):
       0.167  0.000  0.000
       0.000  0.167  0.000
       0.000  0.000  0.167
     ------------------------ ATOM  148 ------------------------
     Tr[ns(148)] =   1.00000
     eigenvalues:
       0.167  0.167  0.167
     eigenvectors (columns):
       1.000  0.000  0.000
       0.000  1.000  0.000
       0.000  0.000  1.000
     occupation matrix ns (before diag.):
       0.167  0.000  0.000
       0.000  0.167  0.000
       0.000  0.000  0.167
     ------------------------ ATOM  149 ------------------------
     Tr[ns(149)] =   3.00000
     eigenvalues:
       0.500  0.500  0.500
     eigenvectors (columns):
       1.000  0.000  0.000
       0.000  1.000  0.000
       0.000  0.000  1.000
     occupation matrix ns (before diag.):
       0.500  0.000  0.000
       0.000  0.500  0.000
       0.000  0.000  0.500
     ------------------------ ATOM  150 ------------------------
     Tr[ns(150)] =   3.00000
     eigenvalues:
       0.500  0.500  0.500
     eigenvectors (columns):
       1.000  0.000  0.000
       0.000  1.000  0.000
       0.000  0.000  1.000
     occupation matrix ns (before diag.):
       0.500  0.000  0.000
       0.000  0.500  0.000
       0.000  0.000  0.500
     ------------------------ ATOM  151 ------------------------
     Tr[ns(151)] =   3.00000
     eigenvalues:
       0.500  0.500  0.500
     eigenvectors (columns):
       1.000  0.000  0.000
       0.000  1.000  0.000
       0.000  0.000  1.000
     occupation matrix ns (before diag.):
       0.500  0.000  0.000
       0.000  0.500  0.000
       0.000  0.000  0.500
     ------------------------ ATOM  152 ------------------------
[...]
   -20.4118 -20.4116 -20.4115 -20.4114 -20.4113 -20.4108 -20.4107 -20.4106
   -20.4105 -20.4104 -20.4098 -20.4093 -20.4092 -20.4091 -20.4090 -20.4088
   -20.4083 -20.4083 -20.4082 -20.4080 -20.4076 -20.4075 -20.4073 -20.4071
   -20.4071 -20.4070 -20.4069 -20.4066 -20.4066 -20.4061 -20.4059 -20.4056
   -20.4055 -20.4053 -20.4052 -20.4050 -20.4048 -20.4043 -20.4042 -20.4038
   -20.4037 -20.4036 -20.4036 -20.4036 -20.4034 -20.4031 -20.4028 -20.4023
   -20.4021 -20.4020 -20.4020 -20.4018 -20.4018 -20.4014 -20.4014 -20.4013
   -20.4013 -20.4012 -20.4012 -20.4011 -20.4010 -20.4007 -20.4005 -20.4000
   -20.4000 -20.3998 -20.3997 -20.3996 -20.3995 -20.3995 -20.3993 -20.3991
   -20.3989 -20.3986 -20.3982 -20.3981 -20.3978 -20.3977 -20.3977 -20.3976
   -20.3974 -20.3972 -20.3972 -20.3970 -20.3967 -20.3965 -20.3965 -20.3964
   -20.3960 -20.3958 -20.3955 -20.3955 -20.3954 -20.3953 -20.3950 -20.3947
   -20.3946 -20.3941 -20.3938 -20.3937 -20.3936 -20.3936 -20.3936 -20.3932
   -20.3930 -20.3929 -20.3926 -20.3925 -20.3921 -20.3911 -20.3910 -20.3907
   -20.3904 -20.3901 -20.3900 -20.3899 -20.3896 -20.3895 -20.3894 -20.3893
   -20.3890 -20.3890 -20.3889 -20.3888 -20.3885 -20.3885 -20.3883 -20.3876
   -20.3875 -20.3874 -20.3873 -20.3873 -20.3872 -20.3871 -20.3870 -20.3869
   -20.3864 -20.3860 -20.3853 -20.3849 -20.3848 -20.3847 -20.3845 -20.3840
   -20.3833 -20.3833 -20.3832 -20.3829 -20.3828 -20.3827 -20.3824 -20.3823
   -20.3823 -20.3821 -20.3820 -20.3819 -20.3818 -20.3817 -20.3815 -20.3810
   -20.3805 -20.3803 -20.3803 -20.3796 -20.3793 -20.3793 -20.3791 -20.3790
   -20.3784 -20.3781 -20.3777 -20.3776 -20.3770 -20.3768 -20.3766 -20.3748
   -20.3745 -20.3743 -20.3740 -20.3736 -20.3731 -20.3726 -20.3722 -20.3713
   -20.3704 -20.3703 -20.3702 -20.3701 -20.3691 -20.3682 -20.3675 -20.3657
   -20.3655 -20.3643 -20.3630 -20.3630 -20.3629 -20.3622 -20.3621 -20.3611
   -20.3584 -20.3552 -20.3524 -20.3502  -7.3648  -7.3592  -7.3584  -7.3575
    -7.3534  -7.3524  -7.3520  -7.3508  -7.3498  -7.3492  -7.3485  -7.3464
    -7.3461  -7.3431  -7.3427  -7.3418  -7.3411  -7.3403  -7.3376  -7.3361
    -7.3353  -7.3335  -7.3312  -7.3303  -7.3297  -7.3291  -7.3283  -7.3281
    -7.3274  -7.3258  -7.3254  -7.3232  -7.3207  -7.3202  -7.3192  -7.3181
    -7.3169  -7.3164  -7.3136  -7.3129  -7.3114  -7.3100  -7.3097  -7.3077
    -7.3074  -7.3066  -7.3064  -7.3059  -7.3041  -7.3037  -7.3033  -7.3018
    -7.3007  -7.2989  -7.2981  -7.2962  -7.2939  -7.2925  -7.2922  -7.2907
    -7.2901  -7.2889  -7.2871  -7.2860  -7.2855  -7.2840  -7.2826  -7.2824
    -7.2803  -7.2796  -7.2787  -7.2780  -7.2770  -7.2763  -7.2758  -7.2754
    -7.2732  -7.2731  -7.2727  -7.2717  -7.2712  -7.2707  -7.2703  -7.2698
    -7.2688  -7.2683  -7.2677  -7.2669  -7.2666  -7.2663  -7.2657  -7.2653
    -7.2649  -7.2643  -7.2635  -7.2627  -7.2626  -7.2616  -7.2607  -7.2604
    -7.2592  -7.2585  -7.2581  -7.2579  -7.2573  -7.2567  -7.2564  -7.2557
    -7.2553  -7.2547  -7.2543  -7.2539  -7.2537  -7.2533  -7.2523  -7.2516
    -7.2514  -7.2504  -7.2502  -7.2496  -7.2490  -7.2484  -7.2477  -7.2474
    -7.2468  -7.2464  -7.2463  -7.2455  -7.2453  -7.2449  -7.2440  -7.2434
    -7.2431  -7.2427  -7.2422  -7.2416  -7.2413  -7.2405  -7.2397  -7.2395
    -7.2393  -7.2389  -7.2385  -7.2381  -7.2378  -7.2376  -7.2368  -7.2362
    -7.2358  -7.2355  -7.2353  -7.2349  -7.2343  -7.2342  -7.2336  -7.2332
    -7.2330  -7.2326  -7.2325  -7.2320  -7.2315  -7.2311  -7.2308  -7.2298
    -7.2295  -7.2286  -7.2284  -7.2282  -7.2278  -7.2275  -7.2267  -7.2264
    -7.2262  -7.2258  -7.2254  -7.2251  -7.2246  -7.2243  -7.2243  -7.2237
    -7.2234  -7.2233  -7.2228  -7.2222  -7.2221  -7.2218  -7.2213  -7.2207
    -7.2205  -7.2201  -7.2199  -7.2190  -7.2189  -7.2187  -7.2182  -7.2175
    -7.2175  -7.2171  -7.2169  -7.2166  -7.2162  -7.2161  -7.2154  -7.2148
    -7.2146  -7.2142  -7.2139  -7.2137  -7.2126  -7.2125  -7.2124  -7.2117
    -7.2115  -7.2109  -7.2106  -7.2104  -7.2099  -7.2093  -7.2091  -7.2090
    -7.2087  -7.2085  -7.2081  -7.2076  -7.2074  -7.2069  -7.2065  -7.2059
    -7.2058  -7.2055  -7.2050  -7.2045  -7.2038  -7.2032  -7.2030  -7.2026
    -7.2021  -7.2016  -7.2014  -7.2013  -7.2003  -7.2002  -7.1999  -7.1994
    -7.1993  -7.1990  -7.1987  -7.1984  -7.1979  -7.1975  -7.1972  -7.1969
    -7.1966  -7.1965  -7.1964  -7.1954  -7.1952  -7.1949  -7.1947  -7.1944
    -7.1940  -7.1938  -7.1930  -7.1929  -7.1926  -7.1926  -7.1922  -7.1918
    -7.1914  -7.1908  -7.1907  -7.1901  -7.1896  -7.1896  -7.1890  -7.1887
    -7.1882  -7.1880  -7.1875  -7.1874  -7.1867  -7.1867  -7.1861  -7.1857
    -7.1850  -7.1849  -7.1845  -7.1841  -7.1839  -7.1835  -7.1831  -7.1829
    -7.1827  -7.1822  -7.1818  -7.1814  -7.1810  -7.1805  -7.1802  -7.1800
    -7.1796  -7.1795  -7.1789  -7.1787  -7.1784  -7.1780  -7.1776  -7.1773
    -7.1769  -7.1768  -7.1762  -7.1759  -7.1754  -7.1749  -7.1745  -7.1743
    -7.1742  -7.1737  -7.1734  -7.1731  -7.1727  -7.1724  -7.1722  -7.1720
    -7.1715  -7.1713  -7.1708  -7.1707  -7.1700  -7.1699  -7.1691  -7.1689
    -7.1688  -7.1684  -7.1682  -7.1677  -7.1670  -7.1669  -7.1667  -7.1663
    -7.1657  -7.1656  -7.1653  -7.1649  -7.1644  -7.1640  -7.1638  -7.1631
    -7.1629  -7.1625  -7.1623  -7.1621  -7.1613  -7.1609  -7.1607  -7.1606
    -7.1600  -7.1597  -7.1593  -7.1592  -7.1588  -7.1585  -7.1583  -7.1582
    -7.1575  -7.1569  -7.1565  -7.1560  -7.1557  -7.1552  -7.1550  -7.1547
    -7.1542  -7.1537  -7.1536  -7.1532  -7.1528  -7.1527  -7.1523  -7.1519
    -7.1517  -7.1511  -7.1509  -7.1504  -7.1503  -7.1499  -7.1498  -7.1491
    -7.1486  -7.1476  -7.1471  -7.1467  -7.1458  -7.1454  -7.1450  -7.1447
    -7.1443  -7.1439  -7.1438  -7.1429  -7.1427  -7.1423  -7.1418  -7.1414
    -7.1410  -7.1408  -7.1406  -7.1399  -7.1396  -7.1391  -7.1387  -7.1384
    -7.1376  -7.1373  -7.1372  -7.1370  -7.1367  -7.1362  -7.1362  -7.1355
    -7.1351  -7.1350  -7.1348  -7.1343  -7.1339  -7.1337  -7.1332  -7.1332
    -7.1324  -7.1320  -7.1315  -7.1313  -7.1307  -7.1303  -7.1298  -7.1291
    -7.1287  -7.1284  -7.1280  -7.1278  -7.1273  -7.1269  -7.1264  -7.1258
    -7.1256  -7.1255  -7.1252  -7.1248  -7.1245  -7.1243  -7.1237  -7.1233
    -7.1231  -7.1229  -7.1223  -7.1219  -7.1217  -7.1216  -7.1207  -7.1206
    -7.1200  -7.1198  -7.1195  -7.1192  -7.1188  -7.1184  -7.1179  -7.1176
    -7.1172  -7.1170  -7.1164  -7.1161  -7.1158  -7.1157  -7.1153  -7.1148
    -7.1146  -7.1139  -7.1137  -7.1134  -7.1122  -7.1118  -7.1114  -7.1111
    -7.1105  -7.1100  -7.1098  -7.1092  -7.1089  -7.1086  -7.1084  -7.1081
    -7.1076  -7.1073  -7.1067  -7.1065  -7.1055  -7.1050  -7.1047  -7.1040
    -7.1031  -7.1027  -7.1007  -7.0998  -7.0995  -7.0976  -7.0971  -7.0965
    -7.0963  -7.0957  -7.0927  -7.0926  -7.0920  -7.0917  -7.0912  -7.0898
    -7.0897  -7.0883  -7.0879  -7.0868  -7.0855  -7.0848  -7.0845  -7.0834
    -7.0828  -7.0828  -7.0812  -7.0796  -7.0793  -7.0789  -7.0780  -7.0772
    -7.0750  -7.0741  -7.0729  -7.0683  -7.0620  -7.0586  -7.0584  -7.0555
    -3.5774  -3.5323  -3.4667  -3.4216  -3.3856  -3.3627  -3.3175  -3.2786
    -3.2251  -3.1664  -3.1610  -3.1154  -3.0585  -3.0418  -3.0281  -3.0040
    -2.9599  -2.9279  -2.9120  -2.8775  -2.8607  -2.8413  -2.8137  -2.7908
    -2.7831  -2.7594  -2.7393  -2.7222  -2.7064  -2.6894  -2.6659  -2.6342
    -2.6200  -2.5953  -2.5835  -2.5616  -2.5510  -2.5118  -2.4901  -2.4670
    -2.4490  -2.4227  -2.4140  -2.4047  -2.3732  -2.3610  -2.3448  -2.3292
    -2.3102  -2.2893  -2.2754  -2.2624  -2.2384  -2.2029  -2.1034  -2.0813
    -1.9994  -1.9491  -1.9203  -1.8752  -1.8647  -1.8186  -1.7985  -1.7673
    -1.7194  -1.6978  -1.6841  -1.6662  -1.6226  -1.5861  -1.5604  -1.5515
    -1.5029  -1.4819  -1.4658  -1.4585  -1.4187  -1.4065  -1.3578  -1.3487
    -1.3324  -1.3124  -1.3093  -1.2979  -1.2931  -1.2651  -1.2540  -1.2008
    -1.1965  -1.1819  -1.1652  -1.1406  -1.1199  -1.1019  -1.0829  -1.0633
    -1.0377  -1.0167  -0.9873  -0.9675  -0.9532  -0.9454  -0.9108  -0.8721
    -0.8393  -0.8297  -0.7644  -0.7314   0.5068   0.5373   0.5514   0.5756
     0.7634   0.7699   0.7789   0.7866   0.7959   0.7981   0.8022   0.8113
     0.8192   0.8226   0.8285   0.8341   0.8401   0.8430   0.8546   0.8590
     0.8654   0.8747   0.8810   0.8855   0.8891   0.8943   0.9002   0.9038
     0.9107   0.9180   0.9213   0.9241   0.9304   0.9319   0.9431   0.9509
     0.9560   0.9606   0.9638   0.9794   0.9824   0.9852   0.9971   1.0072
     1.0171   1.0204   1.0330   1.0371   1.0489   1.0560   1.0702   1.0772
     1.0814   1.0876   1.0934   1.1018   1.1104   1.1192   1.1288   1.1342
     1.5925   1.5972   1.6621   1.6849   1.7061   1.7252   1.7378   1.7568
     1.7871   1.8024   1.8342   1.8371   1.9004   1.9089   1.9224   1.9367
     1.9643   1.9723   1.9790   1.9974   2.0100   2.0278   2.0345   2.0423
     2.0701   2.1027   2.1098   2.1189   2.8368   2.8750   2.8848   2.9373
     2.9531   2.9899   3.0086   3.0278   3.4161   3.4264   3.4316   3.4435
     3.4530   3.4712   3.4743   3.4899   3.5140   3.5198   3.5267   3.5372
     3.5643   3.5790   3.5984   3.6141   3.6591   3.6770   3.6920   3.6977
     3.7018   3.7040   3.7138   3.7182   3.7360   3.7388   3.7491   3.7586
     3.7723   3.7729   3.7847   3.7911   3.8273   3.8344   3.8582   3.8648
     3.9027   3.9146   3.9308   3.9408   3.9556   3.9607   3.9692   3.9876
     3.9949   3.9988   4.0024   4.0147   4.0235   4.0271   4.0312   4.0437
     4.0501   4.0562   4.0689   4.0938   4.3019   4.3112   4.3436   4.3721
     4.3838   4.3962   4.4028   4.4202   4.4608   4.4733   4.4763   4.4886
     4.5021   4.5070   4.5228   4.5312   4.5407   4.5479   4.5611   4.5681
     4.5728   4.5876   4.5931   4.5978   4.6033   4.6124   4.6250   4.6298
     4.6410   4.6458   4.6533   4.6835   4.6893   4.6980   4.7186   4.7495
     4.7562   4.7735   4.7782   4.7929   4.8017   4.8219   4.8344   4.8406
     4.8654   4.8757   4.8875   4.8924   4.9022   4.9169   4.9284   4.9372
     4.9439   4.9524   4.9648   4.9754   4.9803   4.9944   4.9992   5.0277
     5.0305   5.0389   5.0496   5.0536   5.0583   5.0696   5.0790   5.0909
     5.0982   5.1072   5.1112   5.1202   5.1455   5.1484   5.1534   5.1674
     5.1697   5.1761   5.1909   5.2042   5.2124   5.2253   5.2332   5.2467
     5.2634   5.2648   5.2824   5.2879   5.2977   5.3109   5.3289   5.3398
     5.3487   5.3684   5.3760   5.3883   5.4000   5.4189   5.4401   5.4542
     5.4585   5.4665   5.4787   5.5002   5.5069   5.5267   5.5532   5.5598
     5.5793   5.5993   5.6239   5.6344   5.6872   5.6986   5.7124   5.7227
     5.7285   5.7591   5.7668   5.7857   5.8220   5.8352   5.8403   5.8565
     5.8589   5.8773   5.8894   5.9052   5.9109   5.9150   5.9382   5.9572
     5.9763   5.9777   5.9812   5.9915   6.0151   6.0156   6.0344   6.0384
     6.0644   6.0665   6.0978   6.1026   6.1203   6.1223   6.1428   6.1511
     6.1804   6.2024   6.2061   6.2524   6.2679   6.2705   6.2766   6.2941
     6.3081   6.3247   6.3410   6.3505   6.3608   6.3766   6.3979   6.4405
     6.4663   6.5056   6.5637   6.6037   6.8707   6.9082   6.9675   7.0064
     8.4108   8.4714   8.5231   8.5555   8.6043   8.6109   8.6475   8.6657
     8.6928   8.7301   8.7574   8.7882   8.8833   8.9023   8.9270   8.9778
     9.0002   9.0261   9.0384   9.0675   9.1672   9.1887   9.2355   9.2448
     9.2509   9.2670   9.2724   9.3050   9.3159   9.3180   9.3267   9.3310
     9.3470   9.3555   9.3667   9.3788   9.3853   9.3872   9.3996   9.4078
     9.4134   9.4246   9.4361   9.4450   9.4550   9.4653   9.4732   9.4843
     9.4954   9.5072   9.5198   9.5339   9.5389   9.5468   9.5686   9.5862
     9.6190   9.6368   9.6491   9.6518   9.6569   9.6713   9.6814   9.6882
     9.6969   9.7009   9.7078   9.7182   9.7237   9.7299   9.7389   9.7395
     9.7453   9.7546   9.7704   9.7718   9.7812   9.7854   9.7927   9.7988
     9.8128   9.8239   9.8253   9.8339   9.8421   9.8536   9.8666   9.8701
     9.8740   9.8821   9.8898   9.8954   9.9023   9.9125   9.9186   9.9325
     9.9389   9.9501   9.9581   9.9655   9.9699   9.9787   9.9809  10.0184
    10.0249  10.0304  10.0528  10.0608  10.3179  10.3404  10.3513  10.3550
    10.3770  10.3854  10.4061  10.4167  10.4250  10.4353  10.4568  10.4754
    10.5334  10.5598  10.5784  10.6185  10.6341  10.6565  10.6650  10.6897
    10.7006  10.7065  10.7263  10.7443  10.7553  10.7672  10.8006  10.8314
    10.9352  10.9586  10.9730  10.9853  10.9930  11.0054  11.0339  11.0369
    11.0449  11.0716  11.0920  11.1010  11.1641  11.1794  11.1867  11.2048
    11.2438  11.2538  11.2693  11.2764  11.2775  11.2905  11.3232  11.3241
    11.3313  11.3332  11.3390  11.3511  11.3638  11.3708  11.3771  11.3822
    11.3962  11.4111  11.4203  11.4234  11.4399  11.4437  11.4489  11.4593
    11.4672  11.4753  11.4865  11.4993  11.5051  11.5147  11.5209  11.5260
    11.5359  11.5522  11.5534  11.5579  11.5664  11.5762  11.5878  11.5995
    11.6051  11.6093  11.6203  11.6246  11.6338  11.6401  11.6422  11.6716
    11.6786  11.6841  11.6942  11.7008  11.7074  11.7188  11.7304  11.7461
    11.7503  11.7626  11.7829  11.8014  11.8741  11.9073  11.9189  11.9257
    11.9386  11.9426  11.9480  11.9554  11.9598  11.9710  11.9787  11.9871
    11.9933  12.0118  12.0211  12.0255  12.0330  12.0622  12.0686  12.0739
    12.0931  12.1168  12.1314  12.1381  12.1443  12.1557  12.1692  12.1719
    12.1744  12.1870  12.1950  12.2041  12.2233  12.2424  12.2484  12.2655
    12.2763  12.2977  12.3123  12.3204  12.3408  12.3499  12.3647  12.3694
    12.3854  12.3925  12.4088  12.4235  12.4320  12.4394  12.4467  12.4552
    12.4596  12.4658  12.4762  12.4837  12.4977  12.5102  12.5118  12.5248
    12.5405  12.5484  12.5586  12.5669  12.5792  12.6020  12.6184  12.6298
    12.6309  12.6551  12.6576  12.6783  12.6871  12.6891  12.7025  12.7193
    12.7385  12.7586  12.7661  12.7774  12.7906  12.7967  12.8102  12.8263
    12.8279  12.8385  12.8423  12.8472  12.8628  12.8750  12.8794  12.8884
    12.8934  12.8963  12.9000  12.9150  12.9200  12.9296  12.9331  12.9484
    12.9569  12.9585  12.9636  12.9708  12.9840  12.9924  12.9967  12.9995
    13.0093  13.0188  13.0236  13.0317  13.0409  13.0469  13.0603  13.0718
    13.0745  13.0874  13.0929  13.1035  13.1046  13.1071  13.1183  13.1253
    13.1461  13.1625  13.1722  13.1768  13.1831  13.1953  13.2214  13.2301
    13.2533  13.2775  13.2854  13.2972  13.3060  13.3261  13.3469  13.3644
    13.6636  13.6919  13.6995  13.7173  13.7300  13.7334  13.7496  13.7587
    13.7873  13.7901  13.7961  13.8073  13.8191  13.8418  13.8543  13.8846
    13.8925  13.9042  13.9263  13.9409  13.9481  13.9525  13.9547  13.9769
    13.9860  13.9955  14.0158  14.0282  14.0373  14.0453  14.0562  14.1008
    14.1705  14.1886  14.2118  14.2152  14.2387  14.2596  14.2671  14.2777
    14.2997  14.3013  14.3074  14.3233  14.3396  14.3511  14.3691  14.3699
    14.3813  14.3931  14.4068  14.4158  14.4287  14.4419  14.4435  14.4560
    14.4704  14.4797  14.4876  14.5036  14.5112  14.5182  14.5374  14.5498
    14.6142  14.6358  14.6533  14.6806  14.6990  14.7176  14.7252  14.7398
    14.7490  14.7508  14.7636  14.7755  14.7808  14.8152  14.8265  14.8287
    14.8700  14.8922  14.9102  14.9374  14.9492  14.9622  15.0224  15.0698
    15.0797  15.0851  15.0904  15.1029  15.1066  15.1262  15.1396  15.1475
    15.1730  15.1868  15.1909  15.2195  15.2204  15.2291  15.2309  15.2550
    15.2621  15.2687  15.2693  15.2847  15.2926  15.2971  15.3077  15.3171
    15.3221  15.3291  15.3419  15.3441  15.3540  15.3646  15.3653  15.3763
    15.3861  15.3913  15.3965  15.4072  15.4136  15.4188  15.4282  15.4376
    15.4406  15.4516  15.4550  15.4579  15.4713  15.4788  15.4950  15.5070
    15.5156  15.5202  15.5352  15.5451  15.5644  15.5893  15.5953  15.5963
    15.6286  15.6317  15.6496  15.6594  15.6700  15.6779  15.6867  15.6891
    15.7033  15.7047  15.7197  15.7249  15.7384  15.7398  15.7491  15.7587
    15.7749  15.7798  15.7896  15.7967  15.8031  15.8119  15.8193  15.8253
    15.8309  15.8359  15.8494  15.8535  15.8721  15.8738  15.8841  15.8905
    15.9102  15.9225  15.9350  15.9392  15.9403  15.9581  15.9716  15.9984
    16.0016  16.0232  16.0311  16.0472  16.0561  16.0834  16.1097  16.1177
    16.1199  16.1290  16.1411  16.1500  16.1531  16.1673  16.1743  16.1812
    16.1959  16.2035  16.2132  16.2260  16.2311  16.2375  16.2484  16.2498
    16.2526  16.2621  16.2720  16.2737  16.2747  16.2992  16.3039  16.3183
    16.3210  16.3377  16.3453  16.3581  16.3710  16.3907  16.4087  16.4621
    16.4671  16.4777  16.4942  16.5239  16.5504  16.5656  16.6051  16.6144
    16.6252  16.6265  16.6360  16.6429  16.6598  16.6691  16.6767  16.6825
    16.6891  16.6959  16.7109  16.7142  16.7181  16.7351  16.7419  16.7469
    16.7592  16.7652  16.7741  16.7748  16.7819  16.7865  16.8039  16.8123
    16.9855  17.0056  17.0239  17.0321  17.0956  17.1030  17.1261  17.1350
    17.1473  17.1556  17.1980  17.2046  17.2180  17.2301  17.2470  17.2599
    17.2765  17.2859  17.3011  17.3174  17.3260  17.3339  17.3412  17.3647
    17.3753  17.3818  17.3852  17.3920  17.3983  17.4107  17.4212  17.4319
    17.4381  17.4420  17.4504  17.4547  17.4603  17.4717  17.4859  17.4931

     highest occupied, lowest unoccupied level (ev):     7.0611    7.2353

!    total energy              =  -35631.66227417 Ry
     estimated scf accuracy    <       0.00000723 Ry

     The total energy is the sum of the following terms:
     one-electron contribution =  -17764.32686331 Ry
     hartree contribution      =   10622.49812535 Ry
     xc contribution           =   -9354.65238464 Ry
     ewald contribution        =  -19137.40855419 Ry
     Hubbard energy            =       2.22740263 Ry

     convergence has been achieved in  12 iterations

     Writing all to output data dir ./tmp_In1.0Ga0.0As0.5Sb0.5_cube_3x3x3.7/In1.0Ga0.0As0.5Sb0.5_cube_3x3x3.7.save/ :
     XML data file, charge density, pseudopotentials, collected wavefunctions

     init_run     :    327.57s CPU    331.97s WALL (       1 calls)
     electrons    :  11502.68s CPU  11532.80s WALL (       1 calls)

     Called by init_run:
     wfcinit      :    316.58s CPU    320.52s WALL (       1 calls)
     potinit      :      2.34s CPU      2.41s WALL (       1 calls)
     hinit0       :      0.66s CPU      0.70s WALL (       1 calls)

     Called by electrons:
     c_bands      :  10918.96s CPU  10945.11s WALL (      13 calls)
     sum_band     :    576.69s CPU    578.45s WALL (      13 calls)
     v_of_rho     :      4.74s CPU      5.22s WALL (      13 calls)
     mix_rho      :      1.06s CPU      1.33s WALL (      13 calls)

     Called by c_bands:
     init_us_2    :     39.96s CPU     40.86s WALL (      28 calls)
     cegterg      :   9816.48s CPU   9840.49s WALL (      13 calls)

     Called by *egterg:
     cdiaghg      :    865.29s CPU    867.01s WALL (     113 calls)
     h_psi        :   6024.24s CPU   6037.44s WALL (     115 calls)
     g_psi        :      4.85s CPU      4.89s WALL (     101 calls)

     Called by h_psi:
     h_psi:calbec :    948.86s CPU    949.25s WALL (     115 calls)
     vloc_psi     :   1201.79s CPU   1204.50s WALL (     115 calls)
     add_vuspsi   :    933.32s CPU    936.52s WALL (     115 calls)
     vhpsi        :   2930.95s CPU   2931.21s WALL (     115 calls)

     General routines
     calbec       :   1203.75s CPU   1204.03s WALL (     244 calls)
     fft          :      2.84s CPU      3.12s WALL (     131 calls)
     ffts         :      0.26s CPU      0.27s WALL (      13 calls)
     fftw         :   1315.19s CPU   1317.98s WALL (  163658 calls)

     Parallel routines

     Hubbard U routines
     new_ns       :     65.45s CPU     65.67s WALL (      13 calls)
     vhpsi        :   2930.95s CPU   2931.21s WALL (     115 calls)

     PWSCF        :      3h18m CPU      3h20m WALL


   This run was terminated on:  22:40:52  30Jan2026            

=------------------------------------------------------------------------------=
   JOB DONE.
=------------------------------------------------------------------------------=
