
     Program PWSCF v.7.3.1 starts on 28Jan2026 at 14:53:42 

     This program is part of the open-source Quantum ESPRESSO suite
     for quantum simulation of materials; please cite
         "P. Giannozzi et al., J. Phys.:Condens. Matter 21 395502 (2009);
         "P. Giannozzi et al., J. Phys.:Condens. Matter 29 465901 (2017);
         "P. Giannozzi et al., J. Chem. Phys. 152 154105 (2020);
          URL http://www.quantum-espresso.org", 
     in publications or presentations arising from this work. More details at
     http://www.quantum-espresso.org/quote

     Parallel version (MPI), running on   512 processors

     MPI processes distributed on     4 nodes
     233484 MiB available memory on the printing compute node when the environment starts

     Reading input from In1.0Ga0.0As0.75Sb0.25_cube_3x3x3.3.relax.in

     Current dimensions of program PWSCF are:
     Max number of different atomic species (ntypx) = 10
     Max number of k-points (npk) =  40000
     Max angular momentum in pseudopotentials (lmaxx) =  4

     gamma-point specific algorithms are used

     R & G space division:  proc/nbgrp/npool/nimage =     512
     WARNING: too many processors for an effective parallelization!
     wavefunctions fft division:  task group distribution
                                  #TG    x Z-proc =      16     32
     Subspace diagonalization in iterative solution of the eigenvalue problem:
     one sub-group per band group will be used
     custom distributed-memory algorithm (size of sub-group: 15* 15 procs)


     Parallelization info
     --------------------
     sticks:   dense  smooth     PW     G-vecs:    dense   smooth      PW
     Min          91      91     22                15096    15096    1874
     Max          94      94     24                15120    15120    1908
     Sum       47297   47297  11825              7736037  7736037  967067

     Using Pencil Decomposition



     bravais-lattice index     =            1
     lattice parameter (alat)  =      35.1853  a.u.
     unit-cell volume          =   43559.5242 (a.u.)^3
     number of atoms/cell      =          216
     number of atomic types    =            4
     number of electrons       =      3024.00
     number of Kohn-Sham states=         1512
     kinetic-energy cutoff     =     120.0000  Ry
     charge density cutoff     =     480.0000  Ry
     scf convergence threshold =      1.0E-05
     mixing beta               =       0.6500
     number of iterations used =            8  plain     mixing
     energy convergence thresh.=      1.0E-04
     force convergence thresh. =      4.5E-04
     press convergence thresh. =      5.0E-01
     Exchange-correlation= PBE
                           (   1   4   3   4   0   0   0)
     nstep                     =           50

     Hubbard projectors: atomic
     Hubbard parameters of DFT+U (Dudarev formulation) in eV:
     U(As-4p) =  3.2600
     U(Ga-4p) = -3.2650
     U(In-5p) = -0.9725
     U(Sb-5p) =  3.1600

     Internal variables: lda_plus_u =T, lda_plus_u_kind = 0

     celldm(1)=  35.185282  celldm(2)=   0.000000  celldm(3)=   0.000000
     celldm(4)=   0.000000  celldm(5)=   0.000000  celldm(6)=   0.000000

     crystal axes: (cart. coord. in units of alat)
               a(1) = (   1.000000   0.000000   0.000000 )  
               a(2) = (   0.000000   1.000000   0.000000 )  
               a(3) = (   0.000000   0.000000   1.000000 )  

     reciprocal axes: (cart. coord. in units 2 pi/alat)
               b(1) = (  1.000000  0.000000  0.000000 )  
               b(2) = (  0.000000  1.000000  0.000000 )  
               b(3) = (  0.000000  0.000000  1.000000 )  


     PseudoPot. # 1 for As read from file:
     /work/i254/i254/gentles/data/pseudos/As.pbe.NC-SR.standard.v0.5.UPF
     MD5 check sum: bfe1a874457ce592347346129958e7cf
     Pseudo is Norm-conserving + core correction, Zval = 15.0
     Generated using ONCVPSP code by D. R. Hamann
     Using radial grid of 1358 points,  6 beta functions with: 
                l(1) =   0
                l(2) =   0
                l(3) =   1
                l(4) =   1
                l(5) =   2
                l(6) =   2

     PseudoPot. # 2 for Ga read from file:
     /work/i254/i254/gentles/data/pseudos/Ga.pbe.NC-SR.standard.v0.5.UPF
     MD5 check sum: 2bb81bf6f0a8d9832cf3329850435ecf
     Pseudo is Norm-conserving + core correction, Zval = 13.0
     Generated using ONCVPSP code by D. R. Hamann
     Using radial grid of 1902 points,  6 beta functions with: 
                l(1) =   0
                l(2) =   0
                l(3) =   1
                l(4) =   1
                l(5) =   2
                l(6) =   2

     PseudoPot. # 3 for In read from file:
     /work/i254/i254/gentles/data/pseudos/In.pbe.NC-SR.standard.v0.5.UPF
     MD5 check sum: 835f4bf908c982ff75c88e16816a8d7f
     Pseudo is Norm-conserving + core correction, Zval = 13.0
     Generated using ONCVPSP code by D. R. Hamann
     Using radial grid of 1964 points,  6 beta functions with: 
                l(1) =   0
                l(2) =   0
                l(3) =   1
                l(4) =   1
                l(5) =   2
                l(6) =   2

     PseudoPot. # 4 for Sb read from file:
     /work/i254/i254/gentles/data/pseudos/Sb.pbe.NC-SR.standard.v0.5.UPF
     MD5 check sum: 127f69b6101c45666faeae1b5d611565
     Pseudo is Norm-conserving + core correction, Zval = 15.0
     Generated using ONCVPSP code by D. R. Hamann
     Using radial grid of 1434 points,  6 beta functions with: 
                l(1) =   0
                l(2) =   0
                l(3) =   1
                l(4) =   1
                l(5) =   2
                l(6) =   2

     atomic species   valence    mass     pseudopotential
     As               15.00    74.92160     As( 1.00)
     Ga               13.00    69.72300     Ga( 1.00)
     In               13.00   114.81800     In( 1.00)
     Sb               15.00   121.76000     Sb( 1.00)

     No symmetry found



   Cartesian axes

     site n.     atom                  positions (alat units)
         1        In     tau(   1) = (   0.0000000   0.0000000   0.0000000  )
         2        In     tau(   2) = (   0.0000000   0.1666670   0.1666670  )
         3        In     tau(   3) = (   0.1666670   0.0000000   0.1666670  )
         4        In     tau(   4) = (   0.1666670   0.1666670   0.0000000  )
         5        As     tau(   5) = (   0.0833330   0.0833330   0.0833330  )
         6        Sb     tau(   6) = (   0.0833330   0.2500000   0.2500000  )
         7        As     tau(   7) = (   0.2500000   0.0833330   0.2500000  )
         8        As     tau(   8) = (   0.2500000   0.2500000   0.0833330  )
         9        In     tau(   9) = (   0.0000000   0.0000000   0.3333330  )
        10        In     tau(  10) = (   0.0000000   0.1666670   0.5000000  )
        11        In     tau(  11) = (   0.1666670   0.0000000   0.5000000  )
        12        In     tau(  12) = (   0.1666670   0.1666670   0.3333330  )
        13        Sb     tau(  13) = (   0.0833330   0.0833330   0.4166670  )
        14        As     tau(  14) = (   0.0833330   0.2500000   0.5833330  )
        15        As     tau(  15) = (   0.2500000   0.0833330   0.5833330  )
        16        As     tau(  16) = (   0.2500000   0.2500000   0.4166670  )
        17        In     tau(  17) = (   0.0000000   0.0000000   0.6666670  )
        18        In     tau(  18) = (   0.0000000   0.1666670   0.8333330  )
        19        In     tau(  19) = (   0.1666670   0.0000000   0.8333330  )
        20        In     tau(  20) = (   0.1666670   0.1666670   0.6666670  )
        21        As     tau(  21) = (   0.0833330   0.0833330   0.7500000  )
        22        As     tau(  22) = (   0.0833330   0.2500000   0.9166670  )
        23        As     tau(  23) = (   0.2500000   0.0833330   0.9166670  )
        24        As     tau(  24) = (   0.2500000   0.2500000   0.7500000  )
        25        In     tau(  25) = (   0.0000000   0.3333330   0.0000000  )
        26        In     tau(  26) = (   0.0000000   0.5000000   0.1666670  )
        27        In     tau(  27) = (   0.1666670   0.3333330   0.1666670  )
        28        In     tau(  28) = (   0.1666670   0.5000000   0.0000000  )
        29        As     tau(  29) = (   0.0833330   0.4166670   0.0833330  )
        30        As     tau(  30) = (   0.0833330   0.5833330   0.2500000  )
        31        Sb     tau(  31) = (   0.2500000   0.4166670   0.2500000  )
        32        As     tau(  32) = (   0.2500000   0.5833330   0.0833330  )
        33        In     tau(  33) = (   0.0000000   0.3333330   0.3333330  )
        34        In     tau(  34) = (   0.0000000   0.5000000   0.5000000  )
        35        In     tau(  35) = (   0.1666670   0.3333330   0.5000000  )
        36        In     tau(  36) = (   0.1666670   0.5000000   0.3333330  )
        37        Sb     tau(  37) = (   0.0833330   0.4166670   0.4166670  )
        38        As     tau(  38) = (   0.0833330   0.5833330   0.5833330  )
        39        As     tau(  39) = (   0.2500000   0.4166670   0.5833330  )
        40        As     tau(  40) = (   0.2500000   0.5833330   0.4166670  )
        41        In     tau(  41) = (   0.0000000   0.3333330   0.6666670  )
        42        In     tau(  42) = (   0.0000000   0.5000000   0.8333330  )
        43        In     tau(  43) = (   0.1666670   0.3333330   0.8333330  )
        44        In     tau(  44) = (   0.1666670   0.5000000   0.6666670  )
        45        As     tau(  45) = (   0.0833330   0.4166670   0.7500000  )
        46        As     tau(  46) = (   0.0833330   0.5833330   0.9166670  )
        47        As     tau(  47) = (   0.2500000   0.4166670   0.9166670  )
        48        Sb     tau(  48) = (   0.2500000   0.5833330   0.7500000  )
        49        In     tau(  49) = (   0.0000000   0.6666670   0.0000000  )
        50        In     tau(  50) = (   0.0000000   0.8333330   0.1666670  )
        51        In     tau(  51) = (   0.1666670   0.6666670   0.1666670  )
        52        In     tau(  52) = (   0.1666670   0.8333330   0.0000000  )
        53        As     tau(  53) = (   0.0833330   0.7500000   0.0833330  )
        54        As     tau(  54) = (   0.0833330   0.9166670   0.2500000  )
        55        As     tau(  55) = (   0.2500000   0.7500000   0.2500000  )
        56        As     tau(  56) = (   0.2500000   0.9166670   0.0833330  )
        57        In     tau(  57) = (   0.0000000   0.6666670   0.3333330  )
        58        In     tau(  58) = (   0.0000000   0.8333330   0.5000000  )
        59        In     tau(  59) = (   0.1666670   0.6666670   0.5000000  )
        60        In     tau(  60) = (   0.1666670   0.8333330   0.3333330  )
        61        As     tau(  61) = (   0.0833330   0.7500000   0.4166670  )
        62        Sb     tau(  62) = (   0.0833330   0.9166670   0.5833330  )
        63        As     tau(  63) = (   0.2500000   0.7500000   0.5833330  )
        64        As     tau(  64) = (   0.2500000   0.9166670   0.4166670  )
        65        In     tau(  65) = (   0.0000000   0.6666670   0.6666670  )
        66        In     tau(  66) = (   0.0000000   0.8333330   0.8333330  )
        67        In     tau(  67) = (   0.1666670   0.6666670   0.8333330  )
        68        In     tau(  68) = (   0.1666670   0.8333330   0.6666670  )
        69        As     tau(  69) = (   0.0833330   0.7500000   0.7500000  )
        70        As     tau(  70) = (   0.0833330   0.9166670   0.9166670  )
        71        Sb     tau(  71) = (   0.2500000   0.7500000   0.9166670  )
        72        As     tau(  72) = (   0.2500000   0.9166670   0.7500000  )
        73        In     tau(  73) = (   0.3333330   0.0000000   0.0000000  )
        74        In     tau(  74) = (   0.3333330   0.1666670   0.1666670  )
        75        In     tau(  75) = (   0.5000000   0.0000000   0.1666670  )
        76        In     tau(  76) = (   0.5000000   0.1666670   0.0000000  )
        77        As     tau(  77) = (   0.4166670   0.0833330   0.0833330  )
        78        Sb     tau(  78) = (   0.4166670   0.2500000   0.2500000  )
        79        As     tau(  79) = (   0.5833330   0.0833330   0.2500000  )
        80        As     tau(  80) = (   0.5833330   0.2500000   0.0833330  )
        81        In     tau(  81) = (   0.3333330   0.0000000   0.3333330  )
        82        In     tau(  82) = (   0.3333330   0.1666670   0.5000000  )
        83        In     tau(  83) = (   0.5000000   0.0000000   0.5000000  )
        84        In     tau(  84) = (   0.5000000   0.1666670   0.3333330  )
        85        As     tau(  85) = (   0.4166670   0.0833330   0.4166670  )
        86        As     tau(  86) = (   0.4166670   0.2500000   0.5833330  )
        87        As     tau(  87) = (   0.5833330   0.0833330   0.5833330  )
        88        As     tau(  88) = (   0.5833330   0.2500000   0.4166670  )
        89        In     tau(  89) = (   0.3333330   0.0000000   0.6666670  )
        90        In     tau(  90) = (   0.3333330   0.1666670   0.8333330  )
        91        In     tau(  91) = (   0.5000000   0.0000000   0.8333330  )
        92        In     tau(  92) = (   0.5000000   0.1666670   0.6666670  )
        93        As     tau(  93) = (   0.4166670   0.0833330   0.7500000  )
        94        As     tau(  94) = (   0.4166670   0.2500000   0.9166670  )
        95        As     tau(  95) = (   0.5833330   0.0833330   0.9166670  )
        96        As     tau(  96) = (   0.5833330   0.2500000   0.7500000  )
        97        In     tau(  97) = (   0.3333330   0.3333330   0.0000000  )
        98        In     tau(  98) = (   0.3333330   0.5000000   0.1666670  )
        99        In     tau(  99) = (   0.5000000   0.3333330   0.1666670  )
       100        In     tau( 100) = (   0.5000000   0.5000000   0.0000000  )
       101        As     tau( 101) = (   0.4166670   0.4166670   0.0833330  )
       102        As     tau( 102) = (   0.4166670   0.5833330   0.2500000  )
       103        As     tau( 103) = (   0.5833330   0.4166670   0.2500000  )
       104        Sb     tau( 104) = (   0.5833330   0.5833330   0.0833330  )
       105        In     tau( 105) = (   0.3333330   0.3333330   0.3333330  )
       106        In     tau( 106) = (   0.3333330   0.5000000   0.5000000  )
       107        In     tau( 107) = (   0.5000000   0.3333330   0.5000000  )
       108        In     tau( 108) = (   0.5000000   0.5000000   0.3333330  )
       109        Sb     tau( 109) = (   0.4166670   0.4166670   0.4166670  )
       110        Sb     tau( 110) = (   0.4166670   0.5833330   0.5833330  )
       111        Sb     tau( 111) = (   0.5833330   0.4166670   0.5833330  )
       112        As     tau( 112) = (   0.5833330   0.5833330   0.4166670  )
       113        In     tau( 113) = (   0.3333330   0.3333330   0.6666670  )
       114        In     tau( 114) = (   0.3333330   0.5000000   0.8333330  )
       115        In     tau( 115) = (   0.5000000   0.3333330   0.8333330  )
       116        In     tau( 116) = (   0.5000000   0.5000000   0.6666670  )
       117        As     tau( 117) = (   0.4166670   0.4166670   0.7500000  )
       118        Sb     tau( 118) = (   0.4166670   0.5833330   0.9166670  )
       119        As     tau( 119) = (   0.5833330   0.4166670   0.9166670  )
       120        As     tau( 120) = (   0.5833330   0.5833330   0.7500000  )
       121        In     tau( 121) = (   0.3333330   0.6666670   0.0000000  )
       122        In     tau( 122) = (   0.3333330   0.8333330   0.1666670  )
       123        In     tau( 123) = (   0.5000000   0.6666670   0.1666670  )
       124        In     tau( 124) = (   0.5000000   0.8333330   0.0000000  )
       125        Sb     tau( 125) = (   0.4166670   0.7500000   0.0833330  )
       126        As     tau( 126) = (   0.4166670   0.9166670   0.2500000  )
       127        As     tau( 127) = (   0.5833330   0.7500000   0.2500000  )
       128        Sb     tau( 128) = (   0.5833330   0.9166670   0.0833330  )
       129        In     tau( 129) = (   0.3333330   0.6666670   0.3333330  )
       130        In     tau( 130) = (   0.3333330   0.8333330   0.5000000  )
       131        In     tau( 131) = (   0.5000000   0.6666670   0.5000000  )
       132        In     tau( 132) = (   0.5000000   0.8333330   0.3333330  )
       133        Sb     tau( 133) = (   0.4166670   0.7500000   0.4166670  )
       134        As     tau( 134) = (   0.4166670   0.9166670   0.5833330  )
       135        As     tau( 135) = (   0.5833330   0.7500000   0.5833330  )
       136        As     tau( 136) = (   0.5833330   0.9166670   0.4166670  )
       137        In     tau( 137) = (   0.3333330   0.6666670   0.6666670  )
       138        In     tau( 138) = (   0.3333330   0.8333330   0.8333330  )
       139        In     tau( 139) = (   0.5000000   0.6666670   0.8333330  )
       140        In     tau( 140) = (   0.5000000   0.8333330   0.6666670  )
       141        As     tau( 141) = (   0.4166670   0.7500000   0.7500000  )
       142        As     tau( 142) = (   0.4166670   0.9166670   0.9166670  )
       143        As     tau( 143) = (   0.5833330   0.7500000   0.9166670  )
       144        As     tau( 144) = (   0.5833330   0.9166670   0.7500000  )
       145        In     tau( 145) = (   0.6666670   0.0000000   0.0000000  )
       146        In     tau( 146) = (   0.6666670   0.1666670   0.1666670  )
       147        In     tau( 147) = (   0.8333330   0.0000000   0.1666670  )
       148        In     tau( 148) = (   0.8333330   0.1666670   0.0000000  )
       149        Sb     tau( 149) = (   0.7500000   0.0833330   0.0833330  )
       150        Sb     tau( 150) = (   0.7500000   0.2500000   0.2500000  )
       151        As     tau( 151) = (   0.9166670   0.0833330   0.2500000  )
       152        As     tau( 152) = (   0.9166670   0.2500000   0.0833330  )
       153        In     tau( 153) = (   0.6666670   0.0000000   0.3333330  )
       154        In     tau( 154) = (   0.6666670   0.1666670   0.5000000  )
       155        In     tau( 155) = (   0.8333330   0.0000000   0.5000000  )
       156        In     tau( 156) = (   0.8333330   0.1666670   0.3333330  )
       157        As     tau( 157) = (   0.7500000   0.0833330   0.4166670  )
       158        As     tau( 158) = (   0.7500000   0.2500000   0.5833330  )
       159        As     tau( 159) = (   0.9166670   0.0833330   0.5833330  )
       160        Sb     tau( 160) = (   0.9166670   0.2500000   0.4166670  )
       161        In     tau( 161) = (   0.6666670   0.0000000   0.6666670  )
       162        In     tau( 162) = (   0.6666670   0.1666670   0.8333330  )
       163        In     tau( 163) = (   0.8333330   0.0000000   0.8333330  )
       164        In     tau( 164) = (   0.8333330   0.1666670   0.6666670  )
       165        As     tau( 165) = (   0.7500000   0.0833330   0.7500000  )
       166        As     tau( 166) = (   0.7500000   0.2500000   0.9166670  )
       167        As     tau( 167) = (   0.9166670   0.0833330   0.9166670  )
       168        As     tau( 168) = (   0.9166670   0.2500000   0.7500000  )
       169        In     tau( 169) = (   0.6666670   0.3333330   0.0000000  )
       170        In     tau( 170) = (   0.6666670   0.5000000   0.1666670  )
       171        In     tau( 171) = (   0.8333330   0.3333330   0.1666670  )
       172        In     tau( 172) = (   0.8333330   0.5000000   0.0000000  )
       173        Sb     tau( 173) = (   0.7500000   0.4166670   0.0833330  )
       174        As     tau( 174) = (   0.7500000   0.5833330   0.2500000  )
       175        As     tau( 175) = (   0.9166670   0.4166670   0.2500000  )
       176        As     tau( 176) = (   0.9166670   0.5833330   0.0833330  )
       177        In     tau( 177) = (   0.6666670   0.3333330   0.3333330  )
       178        In     tau( 178) = (   0.6666670   0.5000000   0.5000000  )
       179        In     tau( 179) = (   0.8333330   0.3333330   0.5000000  )
       180        In     tau( 180) = (   0.8333330   0.5000000   0.3333330  )
       181        As     tau( 181) = (   0.7500000   0.4166670   0.4166670  )
       182        Sb     tau( 182) = (   0.7500000   0.5833330   0.5833330  )
       183        As     tau( 183) = (   0.9166670   0.4166670   0.5833330  )
       184        Sb     tau( 184) = (   0.9166670   0.5833330   0.4166670  )
       185        In     tau( 185) = (   0.6666670   0.3333330   0.6666670  )
       186        In     tau( 186) = (   0.6666670   0.5000000   0.8333330  )
       187        In     tau( 187) = (   0.8333330   0.3333330   0.8333330  )
       188        In     tau( 188) = (   0.8333330   0.5000000   0.6666670  )
       189        As     tau( 189) = (   0.7500000   0.4166670   0.7500000  )
       190        As     tau( 190) = (   0.7500000   0.5833330   0.9166670  )
       191        As     tau( 191) = (   0.9166670   0.4166670   0.9166670  )
       192        Sb     tau( 192) = (   0.9166670   0.5833330   0.7500000  )
       193        In     tau( 193) = (   0.6666670   0.6666670   0.0000000  )
       194        In     tau( 194) = (   0.6666670   0.8333330   0.1666670  )
       195        In     tau( 195) = (   0.8333330   0.6666670   0.1666670  )
       196        In     tau( 196) = (   0.8333330   0.8333330   0.0000000  )
       197        Sb     tau( 197) = (   0.7500000   0.7500000   0.0833330  )
       198        As     tau( 198) = (   0.7500000   0.9166670   0.2500000  )
       199        Sb     tau( 199) = (   0.9166670   0.7500000   0.2500000  )
       200        Sb     tau( 200) = (   0.9166670   0.9166670   0.0833330  )
       201        In     tau( 201) = (   0.6666670   0.6666670   0.3333330  )
       202        In     tau( 202) = (   0.6666670   0.8333330   0.5000000  )
       203        In     tau( 203) = (   0.8333330   0.6666670   0.5000000  )
       204        In     tau( 204) = (   0.8333330   0.8333330   0.3333330  )
       205        As     tau( 205) = (   0.7500000   0.7500000   0.4166670  )
       206        As     tau( 206) = (   0.7500000   0.9166670   0.5833330  )
       207        As     tau( 207) = (   0.9166670   0.7500000   0.5833330  )
       208        As     tau( 208) = (   0.9166670   0.9166670   0.4166670  )
       209        In     tau( 209) = (   0.6666670   0.6666670   0.6666670  )
       210        In     tau( 210) = (   0.6666670   0.8333330   0.8333330  )
       211        In     tau( 211) = (   0.8333330   0.6666670   0.8333330  )
       212        In     tau( 212) = (   0.8333330   0.8333330   0.6666670  )
       213        As     tau( 213) = (   0.7500000   0.7500000   0.7500000  )
       214        As     tau( 214) = (   0.7500000   0.9166670   0.9166670  )
       215        As     tau( 215) = (   0.9166670   0.7500000   0.9166670  )
       216        Sb     tau( 216) = (   0.9166670   0.9166670   0.7500000  )

     number of k points=     1
                       cart. coord. in units 2pi/alat
        k(    1) = (   0.0000000   0.0000000   0.0000000), wk =   2.0000000

     Dense  grid:  3868019 G-vectors     FFT dimensions: ( 250, 250, 250)

     Estimated max dynamical RAM per process >     242.20 MB

     Estimated total dynamical RAM >     121.10 GB

     Atomic positions and unit cell read from directory:
     ./tmp_In1.0Ga0.0As0.75Sb0.25_cube_3x3x3.3/In1.0Ga0.0As0.75Sb0.25_cube_3x3x3.3.save/
     Atomic positions from file used, from input discarded

     Cannot read rho : file not found

     Initial potential from superposition of free atoms

     starting charge    3023.5448, renormalised to    3024.0000

     STARTING HUBBARD OCCUPATIONS:

     =================== HUBBARD OCCUPATIONS ===================
     ------------------------ ATOM    1 ------------------------
     Tr[ns(  1)] =   1.00000
     eigenvalues:
       0.167  0.167  0.167
     eigenvectors (columns):
       1.000  0.000  0.000
       0.000  1.000  0.000
       0.000  0.000  1.000
     occupation matrix ns (before diag.):
       0.167  0.000  0.000
       0.000  0.167  0.000
       0.000  0.000  0.167
     ------------------------ ATOM    2 ------------------------
     Tr[ns(  2)] =   1.00000
     eigenvalues:
       0.167  0.167  0.167
     eigenvectors (columns):
       1.000  0.000  0.000
       0.000  1.000  0.000
       0.000  0.000  1.000
     occupation matrix ns (before diag.):
       0.167  0.000  0.000
       0.000  0.167  0.000
       0.000  0.000  0.167
     ------------------------ ATOM    3 ------------------------
     Tr[ns(  3)] =   1.00000
     eigenvalues:
       0.167  0.167  0.167
     eigenvectors (columns):
       1.000  0.000  0.000
       0.000  1.000  0.000
       0.000  0.000  1.000
     occupation matrix ns (before diag.):
       0.167  0.000  0.000
       0.000  0.167  0.000
       0.000  0.000  0.167
     ------------------------ ATOM    4 ------------------------
     Tr[ns(  4)] =   1.00000
     eigenvalues:
       0.167  0.167  0.167
     eigenvectors (columns):
       1.000  0.000  0.000
       0.000  1.000  0.000
       0.000  0.000  1.000
     occupation matrix ns (before diag.):
       0.167  0.000  0.000
       0.000  0.167  0.000
       0.000  0.000  0.167
     ------------------------ ATOM    5 ------------------------
     Tr[ns(  5)] =   3.00000
     eigenvalues:
       0.500  0.500  0.500
     eigenvectors (columns):
       1.000  0.000  0.000
       0.000  1.000  0.000
       0.000  0.000  1.000
     occupation matrix ns (before diag.):
       0.500  0.000  0.000
       0.000  0.500  0.000
       0.000  0.000  0.500
     ------------------------ ATOM    6 ------------------------
     Tr[ns(  6)] =   3.00000
     eigenvalues:
       0.500  0.500  0.500
     eigenvectors (columns):
       1.000  0.000  0.000
       0.000  1.000  0.000
       0.000  0.000  1.000
     occupation matrix ns (before diag.):
       0.500  0.000  0.000
       0.000  0.500  0.000
       0.000  0.000  0.500
     ------------------------ ATOM    7 ------------------------
     Tr[ns(  7)] =   3.00000
     eigenvalues:
       0.500  0.500  0.500
     eigenvectors (columns):
       1.000  0.000  0.000
       0.000  1.000  0.000
       0.000  0.000  1.000
     occupation matrix ns (before diag.):
       0.500  0.000  0.000
       0.000  0.500  0.000
       0.000  0.000  0.500
     ------------------------ ATOM    8 ------------------------
     Tr[ns(  8)] =   3.00000
     eigenvalues:
       0.500  0.500  0.500
     eigenvectors (columns):
       1.000  0.000  0.000
       0.000  1.000  0.000
       0.000  0.000  1.000
     occupation matrix ns (before diag.):
       0.500  0.000  0.000
       0.000  0.500  0.000
       0.000  0.000  0.500
     ------------------------ ATOM    9 ------------------------
     Tr[ns(  9)] =   1.00000
     eigenvalues:
       0.167  0.167  0.167
     eigenvectors (columns):
       1.000  0.000  0.000
       0.000  1.000  0.000
       0.000  0.000  1.000
     occupation matrix ns (before diag.):
       0.167  0.000  0.000
       0.000  0.167  0.000
       0.000  0.000  0.167
     ------------------------ ATOM   10 ------------------------
     Tr[ns( 10)] =   1.00000
     eigenvalues:
       0.167  0.167  0.167
     eigenvectors (columns):
       1.000  0.000  0.000
       0.000  1.000  0.000
       0.000  0.000  1.000
     occupation matrix ns (before diag.):
       0.167  0.000  0.000
       0.000  0.167  0.000
       0.000  0.000  0.167
     ------------------------ ATOM   11 ------------------------
     Tr[ns( 11)] =   1.00000
     eigenvalues:
       0.167  0.167  0.167
     eigenvectors (columns):
       1.000  0.000  0.000
       0.000  1.000  0.000
       0.000  0.000  1.000
     occupation matrix ns (before diag.):
       0.167  0.000  0.000
       0.000  0.167  0.000
       0.000  0.000  0.167
     ------------------------ ATOM   12 ------------------------
     Tr[ns( 12)] =   1.00000
     eigenvalues:
       0.167  0.167  0.167
     eigenvectors (columns):
       1.000  0.000  0.000
       0.000  1.000  0.000
       0.000  0.000  1.000
     occupation matrix ns (before diag.):
       0.167  0.000  0.000
       0.000  0.167  0.000
       0.000  0.000  0.167
     ------------------------ ATOM   13 ------------------------
     Tr[ns( 13)] =   3.00000
     eigenvalues:
       0.500  0.500  0.500
     eigenvectors (columns):
       1.000  0.000  0.000
       0.000  1.000  0.000
       0.000  0.000  1.000
     occupation matrix ns (before diag.):
       0.500  0.000  0.000
       0.000  0.500  0.000
       0.000  0.000  0.500
     ------------------------ ATOM   14 ------------------------
     Tr[ns( 14)] =   3.00000
     eigenvalues:
       0.500  0.500  0.500
     eigenvectors (columns):
       1.000  0.000  0.000
       0.000  1.000  0.000
       0.000  0.000  1.000
     occupation matrix ns (before diag.):
       0.500  0.000  0.000
       0.000  0.500  0.000
       0.000  0.000  0.500
     ------------------------ ATOM   15 ------------------------
     Tr[ns( 15)] =   3.00000
     eigenvalues:
       0.500  0.500  0.500
     eigenvectors (columns):
       1.000  0.000  0.000
       0.000  1.000  0.000
       0.000  0.000  1.000
     occupation matrix ns (before diag.):
       0.500  0.000  0.000
       0.000  0.500  0.000
       0.000  0.000  0.500
     ------------------------ ATOM   16 ------------------------
     Tr[ns( 16)] =   3.00000
     eigenvalues:
       0.500  0.500  0.500
     eigenvectors (columns):
       1.000  0.000  0.000
       0.000  1.000  0.000
       0.000  0.000  1.000
     occupation matrix ns (before diag.):
       0.500  0.000  0.000
       0.000  0.500  0.000
       0.000  0.000  0.500
     ------------------------ ATOM   17 ------------------------
     Tr[ns( 17)] =   1.00000
     eigenvalues:
       0.167  0.167  0.167
     eigenvectors (columns):
       1.000  0.000  0.000
       0.000  1.000  0.000
       0.000  0.000  1.000
     occupation matrix ns (before diag.):
       0.167  0.000  0.000
       0.000  0.167  0.000
       0.000  0.000  0.167
     ------------------------ ATOM   18 ------------------------
     Tr[ns( 18)] =   1.00000
     eigenvalues:
       0.167  0.167  0.167
     eigenvectors (columns):
       1.000  0.000  0.000
       0.000  1.000  0.000
       0.000  0.000  1.000
     occupation matrix ns (before diag.):
       0.167  0.000  0.000
       0.000  0.167  0.000
       0.000  0.000  0.167
     ------------------------ ATOM   19 ------------------------
     Tr[ns( 19)] =   1.00000
     eigenvalues:
       0.167  0.167  0.167
     eigenvectors (columns):
       1.000  0.000  0.000
       0.000  1.000  0.000
       0.000  0.000  1.000
     occupation matrix ns (before diag.):
       0.167  0.000  0.000
       0.000  0.167  0.000
       0.000  0.000  0.167
     ------------------------ ATOM   20 ------------------------
     Tr[ns( 20)] =   1.00000
     eigenvalues:
       0.167  0.167  0.167
     eigenvectors (columns):
       1.000  0.000  0.000
       0.000  1.000  0.000
       0.000  0.000  1.000
     occupation matrix ns (before diag.):
       0.167  0.000  0.000
       0.000  0.167  0.000
       0.000  0.000  0.167
     ------------------------ ATOM   21 ------------------------
     Tr[ns( 21)] =   3.00000
     eigenvalues:
       0.500  0.500  0.500
     eigenvectors (columns):
       1.000  0.000  0.000
       0.000  1.000  0.000
       0.000  0.000  1.000
     occupation matrix ns (before diag.):
       0.500  0.000  0.000
       0.000  0.500  0.000
       0.000  0.000  0.500
     ------------------------ ATOM   22 ------------------------
     Tr[ns( 22)] =   3.00000
     eigenvalues:
       0.500  0.500  0.500
     eigenvectors (columns):
       1.000  0.000  0.000
       0.000  1.000  0.000
       0.000  0.000  1.000
     occupation matrix ns (before diag.):
       0.500  0.000  0.000
       0.000  0.500  0.000
       0.000  0.000  0.500
     ------------------------ ATOM   23 ------------------------
     Tr[ns( 23)] =   3.00000
     eigenvalues:
       0.500  0.500  0.500
     eigenvectors (columns):
       1.000  0.000  0.000
       0.000  1.000  0.000
       0.000  0.000  1.000
     occupation matrix ns (before diag.):
       0.500  0.000  0.000
       0.000  0.500  0.000
       0.000  0.000  0.500
     ------------------------ ATOM   24 ------------------------
     Tr[ns( 24)] =   3.00000
     eigenvalues:
       0.500  0.500  0.500
     eigenvectors (columns):
       1.000  0.000  0.000
       0.000  1.000  0.000
       0.000  0.000  1.000
     occupation matrix ns (before diag.):
       0.500  0.000  0.000
       0.000  0.500  0.000
       0.000  0.000  0.500
     ------------------------ ATOM   25 ------------------------
     Tr[ns( 25)] =   1.00000
     eigenvalues:
       0.167  0.167  0.167
     eigenvectors (columns):
       1.000  0.000  0.000
       0.000  1.000  0.000
       0.000  0.000  1.000
     occupation matrix ns (before diag.):
       0.167  0.000  0.000
       0.000  0.167  0.000
       0.000  0.000  0.167
     ------------------------ ATOM   26 ------------------------
     Tr[ns( 26)] =   1.00000
     eigenvalues:
       0.167  0.167  0.167
     eigenvectors (columns):
       1.000  0.000  0.000
       0.000  1.000  0.000
       0.000  0.000  1.000
     occupation matrix ns (before diag.):
       0.167  0.000  0.000
       0.000  0.167  0.000
       0.000  0.000  0.167
     ------------------------ ATOM   27 ------------------------
     Tr[ns( 27)] =   1.00000
     eigenvalues:
       0.167  0.167  0.167
     eigenvectors (columns):
       1.000  0.000  0.000
       0.000  1.000  0.000
       0.000  0.000  1.000
     occupation matrix ns (before diag.):
       0.167  0.000  0.000
       0.000  0.167  0.000
       0.000  0.000  0.167
     ------------------------ ATOM   28 ------------------------
     Tr[ns( 28)] =   1.00000
     eigenvalues:
       0.167  0.167  0.167
     eigenvectors (columns):
       1.000  0.000  0.000
       0.000  1.000  0.000
       0.000  0.000  1.000
     occupation matrix ns (before diag.):
       0.167  0.000  0.000
       0.000  0.167  0.000
       0.000  0.000  0.167
     ------------------------ ATOM   29 ------------------------
     Tr[ns( 29)] =   3.00000
     eigenvalues:
       0.500  0.500  0.500
     eigenvectors (columns):
       1.000  0.000  0.000
       0.000  1.000  0.000
       0.000  0.000  1.000
     occupation matrix ns (before diag.):
       0.500  0.000  0.000
       0.000  0.500  0.000
       0.000  0.000  0.500
     ------------------------ ATOM   30 ------------------------
     Tr[ns( 30)] =   3.00000
     eigenvalues:
       0.500  0.500  0.500
     eigenvectors (columns):
       1.000  0.000  0.000
       0.000  1.000  0.000
       0.000  0.000  1.000
     occupation matrix ns (before diag.):
       0.500  0.000  0.000
       0.000  0.500  0.000
       0.000  0.000  0.500
     ------------------------ ATOM   31 ------------------------
     Tr[ns( 31)] =   3.00000
     eigenvalues:
       0.500  0.500  0.500
     eigenvectors (columns):
       1.000  0.000  0.000
       0.000  1.000  0.000
       0.000  0.000  1.000
     occupation matrix ns (before diag.):
       0.500  0.000  0.000
       0.000  0.500  0.000
       0.000  0.000  0.500
     ------------------------ ATOM   32 ------------------------
     Tr[ns( 32)] =   3.00000
     eigenvalues:
       0.500  0.500  0.500
     eigenvectors (columns):
       1.000  0.000  0.000
       0.000  1.000  0.000
       0.000  0.000  1.000
     occupation matrix ns (before diag.):
       0.500  0.000  0.000
       0.000  0.500  0.000
       0.000  0.000  0.500
     ------------------------ ATOM   33 ------------------------
     Tr[ns( 33)] =   1.00000
     eigenvalues:
       0.167  0.167  0.167
     eigenvectors (columns):
       1.000  0.000  0.000
       0.000  1.000  0.000
       0.000  0.000  1.000
     occupation matrix ns (before diag.):
       0.167  0.000  0.000
       0.000  0.167  0.000
       0.000  0.000  0.167
     ------------------------ ATOM   34 ------------------------
     Tr[ns( 34)] =   1.00000
     eigenvalues:
       0.167  0.167  0.167
     eigenvectors (columns):
       1.000  0.000  0.000
       0.000  1.000  0.000
       0.000  0.000  1.000
     occupation matrix ns (before diag.):
       0.167  0.000  0.000
       0.000  0.167  0.000
       0.000  0.000  0.167
     ------------------------ ATOM   35 ------------------------
     Tr[ns( 35)] =   1.00000
     eigenvalues:
       0.167  0.167  0.167
     eigenvectors (columns):
       1.000  0.000  0.000
       0.000  1.000  0.000
       0.000  0.000  1.000
     occupation matrix ns (before diag.):
       0.167  0.000  0.000
       0.000  0.167  0.000
       0.000  0.000  0.167
     ------------------------ ATOM   36 ------------------------
     Tr[ns( 36)] =   1.00000
     eigenvalues:
       0.167  0.167  0.167
     eigenvectors (columns):
       1.000  0.000  0.000
       0.000  1.000  0.000
       0.000  0.000  1.000
     occupation matrix ns (before diag.):
       0.167  0.000  0.000
       0.000  0.167  0.000
       0.000  0.000  0.167
     ------------------------ ATOM   37 ------------------------
     Tr[ns( 37)] =   3.00000
     eigenvalues:
       0.500  0.500  0.500
     eigenvectors (columns):
       1.000  0.000  0.000
       0.000  1.000  0.000
       0.000  0.000  1.000
     occupation matrix ns (before diag.):
       0.500  0.000  0.000
       0.000  0.500  0.000
       0.000  0.000  0.500
     ------------------------ ATOM   38 ------------------------
     Tr[ns( 38)] =   3.00000
     eigenvalues:
       0.500  0.500  0.500
     eigenvectors (columns):
       1.000  0.000  0.000
       0.000  1.000  0.000
       0.000  0.000  1.000
     occupation matrix ns (before diag.):
       0.500  0.000  0.000
       0.000  0.500  0.000
       0.000  0.000  0.500
     ------------------------ ATOM   39 ------------------------
     Tr[ns( 39)] =   3.00000
     eigenvalues:
       0.500  0.500  0.500
     eigenvectors (columns):
       1.000  0.000  0.000
       0.000  1.000  0.000
       0.000  0.000  1.000
     occupation matrix ns (before diag.):
       0.500  0.000  0.000
       0.000  0.500  0.000
       0.000  0.000  0.500
     ------------------------ ATOM   40 ------------------------
     Tr[ns( 40)] =   3.00000
     eigenvalues:
       0.500  0.500  0.500
     eigenvectors (columns):
       1.000  0.000  0.000
       0.000  1.000  0.000
       0.000  0.000  1.000
     occupation matrix ns (before diag.):
       0.500  0.000  0.000
       0.000  0.500  0.000
       0.000  0.000  0.500
     ------------------------ ATOM   41 ------------------------
     Tr[ns( 41)] =   1.00000
     eigenvalues:
       0.167  0.167  0.167
     eigenvectors (columns):
       1.000  0.000  0.000
       0.000  1.000  0.000
       0.000  0.000  1.000
     occupation matrix ns (before diag.):
       0.167  0.000  0.000
       0.000  0.167  0.000
       0.000  0.000  0.167
     ------------------------ ATOM   42 ------------------------
     Tr[ns( 42)] =   1.00000
     eigenvalues:
       0.167  0.167  0.167
     eigenvectors (columns):
       1.000  0.000  0.000
       0.000  1.000  0.000
       0.000  0.000  1.000
     occupation matrix ns (before diag.):
       0.167  0.000  0.000
       0.000  0.167  0.000
       0.000  0.000  0.167
     ------------------------ ATOM   43 ------------------------
     Tr[ns( 43)] =   1.00000
     eigenvalues:
       0.167  0.167  0.167
     eigenvectors (columns):
       1.000  0.000  0.000
       0.000  1.000  0.000
       0.000  0.000  1.000
     occupation matrix ns (before diag.):
       0.167  0.000  0.000
       0.000  0.167  0.000
       0.000  0.000  0.167
     ------------------------ ATOM   44 ------------------------
     Tr[ns( 44)] =   1.00000
     eigenvalues:
       0.167  0.167  0.167
     eigenvectors (columns):
       1.000  0.000  0.000
       0.000  1.000  0.000
       0.000  0.000  1.000
     occupation matrix ns (before diag.):
       0.167  0.000  0.000
       0.000  0.167  0.000
       0.000  0.000  0.167
     ------------------------ ATOM   45 ------------------------
     Tr[ns( 45)] =   3.00000
     eigenvalues:
       0.500  0.500  0.500
     eigenvectors (columns):
       1.000  0.000  0.000
       0.000  1.000  0.000
       0.000  0.000  1.000
     occupation matrix ns (before diag.):
       0.500  0.000  0.000
       0.000  0.500  0.000
       0.000  0.000  0.500
     ------------------------ ATOM   46 ------------------------
     Tr[ns( 46)] =   3.00000
     eigenvalues:
       0.500  0.500  0.500
     eigenvectors (columns):
       1.000  0.000  0.000
       0.000  1.000  0.000
       0.000  0.000  1.000
     occupation matrix ns (before diag.):
       0.500  0.000  0.000
       0.000  0.500  0.000
       0.000  0.000  0.500
     ------------------------ ATOM   47 ------------------------
     Tr[ns( 47)] =   3.00000
     eigenvalues:
       0.500  0.500  0.500
     eigenvectors (columns):
       1.000  0.000  0.000
       0.000  1.000  0.000
       0.000  0.000  1.000
     occupation matrix ns (before diag.):
       0.500  0.000  0.000
       0.000  0.500  0.000
       0.000  0.000  0.500
     ------------------------ ATOM   48 ------------------------
     Tr[ns( 48)] =   3.00000
     eigenvalues:
       0.500  0.500  0.500
     eigenvectors (columns):
       1.000  0.000  0.000
       0.000  1.000  0.000
       0.000  0.000  1.000
     occupation matrix ns (before diag.):
       0.500  0.000  0.000
       0.000  0.500  0.000
       0.000  0.000  0.500
     ------------------------ ATOM   49 ------------------------
     Tr[ns( 49)] =   1.00000
     eigenvalues:
       0.167  0.167  0.167
     eigenvectors (columns):
       1.000  0.000  0.000
       0.000  1.000  0.000
       0.000  0.000  1.000
     occupation matrix ns (before diag.):
       0.167  0.000  0.000
       0.000  0.167  0.000
       0.000  0.000  0.167
     ------------------------ ATOM   50 ------------------------
     Tr[ns( 50)] =   1.00000
     eigenvalues:
       0.167  0.167  0.167
     eigenvectors (columns):
       1.000  0.000  0.000
       0.000  1.000  0.000
       0.000  0.000  1.000
     occupation matrix ns (before diag.):
       0.167  0.000  0.000
       0.000  0.167  0.000
       0.000  0.000  0.167
     ------------------------ ATOM   51 ------------------------
     Tr[ns( 51)] =   1.00000
     eigenvalues:
       0.167  0.167  0.167
     eigenvectors (columns):
       1.000  0.000  0.000
       0.000  1.000  0.000
       0.000  0.000  1.000
     occupation matrix ns (before diag.):
       0.167  0.000  0.000
       0.000  0.167  0.000
       0.000  0.000  0.167
     ------------------------ ATOM   52 ------------------------
     Tr[ns( 52)] =   1.00000
     eigenvalues:
       0.167  0.167  0.167
     eigenvectors (columns):
       1.000  0.000  0.000
       0.000  1.000  0.000
       0.000  0.000  1.000
     occupation matrix ns (before diag.):
       0.167  0.000  0.000
       0.000  0.167  0.000
       0.000  0.000  0.167
     ------------------------ ATOM   53 ------------------------
     Tr[ns( 53)] =   3.00000
     eigenvalues:
       0.500  0.500  0.500
     eigenvectors (columns):
       1.000  0.000  0.000
       0.000  1.000  0.000
       0.000  0.000  1.000
     occupation matrix ns (before diag.):
       0.500  0.000  0.000
       0.000  0.500  0.000
       0.000  0.000  0.500
     ------------------------ ATOM   54 ------------------------
     Tr[ns( 54)] =   3.00000
     eigenvalues:
       0.500  0.500  0.500
     eigenvectors (columns):
       1.000  0.000  0.000
       0.000  1.000  0.000
       0.000  0.000  1.000
     occupation matrix ns (before diag.):
       0.500  0.000  0.000
       0.000  0.500  0.000
       0.000  0.000  0.500
     ------------------------ ATOM   55 ------------------------
     Tr[ns( 55)] =   3.00000
     eigenvalues:
       0.500  0.500  0.500
     eigenvectors (columns):
       1.000  0.000  0.000
       0.000  1.000  0.000
       0.000  0.000  1.000
     occupation matrix ns (before diag.):
       0.500  0.000  0.000
       0.000  0.500  0.000
       0.000  0.000  0.500
     ------------------------ ATOM   56 ------------------------
     Tr[ns( 56)] =   3.00000
     eigenvalues:
       0.500  0.500  0.500
     eigenvectors (columns):
       1.000  0.000  0.000
       0.000  1.000  0.000
       0.000  0.000  1.000
     occupation matrix ns (before diag.):
       0.500  0.000  0.000
       0.000  0.500  0.000
       0.000  0.000  0.500
     ------------------------ ATOM   57 ------------------------
     Tr[ns( 57)] =   1.00000
     eigenvalues:
       0.167  0.167  0.167
     eigenvectors (columns):
       1.000  0.000  0.000
       0.000  1.000  0.000
       0.000  0.000  1.000
     occupation matrix ns (before diag.):
       0.167  0.000  0.000
       0.000  0.167  0.000
       0.000  0.000  0.167
     ------------------------ ATOM   58 ------------------------
     Tr[ns( 58)] =   1.00000
     eigenvalues:
       0.167  0.167  0.167
     eigenvectors (columns):
       1.000  0.000  0.000
       0.000  1.000  0.000
       0.000  0.000  1.000
     occupation matrix ns (before diag.):
       0.167  0.000  0.000
       0.000  0.167  0.000
       0.000  0.000  0.167
     ------------------------ ATOM   59 ------------------------
     Tr[ns( 59)] =   1.00000
     eigenvalues:
       0.167  0.167  0.167
     eigenvectors (columns):
       1.000  0.000  0.000
       0.000  1.000  0.000
       0.000  0.000  1.000
     occupation matrix ns (before diag.):
       0.167  0.000  0.000
       0.000  0.167  0.000
       0.000  0.000  0.167
     ------------------------ ATOM   60 ------------------------
     Tr[ns( 60)] =   1.00000
     eigenvalues:
       0.167  0.167  0.167
     eigenvectors (columns):
       1.000  0.000  0.000
       0.000  1.000  0.000
       0.000  0.000  1.000
     occupation matrix ns (before diag.):
       0.167  0.000  0.000
       0.000  0.167  0.000
       0.000  0.000  0.167
     ------------------------ ATOM   61 ------------------------
     Tr[ns( 61)] =   3.00000
     eigenvalues:
       0.500  0.500  0.500
     eigenvectors (columns):
       1.000  0.000  0.000
       0.000  1.000  0.000
       0.000  0.000  1.000
     occupation matrix ns (before diag.):
       0.500  0.000  0.000
       0.000  0.500  0.000
       0.000  0.000  0.500
     ------------------------ ATOM   62 ------------------------
     Tr[ns( 62)] =   3.00000
     eigenvalues:
       0.500  0.500  0.500
     eigenvectors (columns):
       1.000  0.000  0.000
       0.000  1.000  0.000
       0.000  0.000  1.000
     occupation matrix ns (before diag.):
       0.500  0.000  0.000
       0.000  0.500  0.000
       0.000  0.000  0.500
     ------------------------ ATOM   63 ------------------------
     Tr[ns( 63)] =   3.00000
     eigenvalues:
       0.500  0.500  0.500
     eigenvectors (columns):
       1.000  0.000  0.000
       0.000  1.000  0.000
       0.000  0.000  1.000
     occupation matrix ns (before diag.):
       0.500  0.000  0.000
       0.000  0.500  0.000
       0.000  0.000  0.500
     ------------------------ ATOM   64 ------------------------
     Tr[ns( 64)] =   3.00000
     eigenvalues:
       0.500  0.500  0.500
     eigenvectors (columns):
       1.000  0.000  0.000
       0.000  1.000  0.000
       0.000  0.000  1.000
     occupation matrix ns (before diag.):
       0.500  0.000  0.000
       0.000  0.500  0.000
       0.000  0.000  0.500
     ------------------------ ATOM   65 ------------------------
     Tr[ns( 65)] =   1.00000
     eigenvalues:
       0.167  0.167  0.167
     eigenvectors (columns):
       1.000  0.000  0.000
       0.000  1.000  0.000
       0.000  0.000  1.000
     occupation matrix ns (before diag.):
       0.167  0.000  0.000
       0.000  0.167  0.000
       0.000  0.000  0.167
     ------------------------ ATOM   66 ------------------------
     Tr[ns( 66)] =   1.00000
     eigenvalues:
       0.167  0.167  0.167
     eigenvectors (columns):
       1.000  0.000  0.000
       0.000  1.000  0.000
       0.000  0.000  1.000
     occupation matrix ns (before diag.):
       0.167  0.000  0.000
       0.000  0.167  0.000
       0.000  0.000  0.167
     ------------------------ ATOM   67 ------------------------
     Tr[ns( 67)] =   1.00000
     eigenvalues:
       0.167  0.167  0.167
     eigenvectors (columns):
       1.000  0.000  0.000
       0.000  1.000  0.000
       0.000  0.000  1.000
     occupation matrix ns (before diag.):
       0.167  0.000  0.000
       0.000  0.167  0.000
       0.000  0.000  0.167
     ------------------------ ATOM   68 ------------------------
     Tr[ns( 68)] =   1.00000
     eigenvalues:
       0.167  0.167  0.167
     eigenvectors (columns):
       1.000  0.000  0.000
       0.000  1.000  0.000
       0.000  0.000  1.000
     occupation matrix ns (before diag.):
       0.167  0.000  0.000
       0.000  0.167  0.000
       0.000  0.000  0.167
     ------------------------ ATOM   69 ------------------------
     Tr[ns( 69)] =   3.00000
     eigenvalues:
       0.500  0.500  0.500
     eigenvectors (columns):
       1.000  0.000  0.000
       0.000  1.000  0.000
       0.000  0.000  1.000
     occupation matrix ns (before diag.):
       0.500  0.000  0.000
       0.000  0.500  0.000
       0.000  0.000  0.500
     ------------------------ ATOM   70 ------------------------
     Tr[ns( 70)] =   3.00000
     eigenvalues:
       0.500  0.500  0.500
     eigenvectors (columns):
       1.000  0.000  0.000
       0.000  1.000  0.000
       0.000  0.000  1.000
     occupation matrix ns (before diag.):
       0.500  0.000  0.000
       0.000  0.500  0.000
       0.000  0.000  0.500
     ------------------------ ATOM   71 ------------------------
     Tr[ns( 71)] =   3.00000
     eigenvalues:
       0.500  0.500  0.500
     eigenvectors (columns):
       1.000  0.000  0.000
       0.000  1.000  0.000
       0.000  0.000  1.000
     occupation matrix ns (before diag.):
       0.500  0.000  0.000
       0.000  0.500  0.000
       0.000  0.000  0.500
     ------------------------ ATOM   72 ------------------------
     Tr[ns( 72)] =   3.00000
     eigenvalues:
       0.500  0.500  0.500
     eigenvectors (columns):
       1.000  0.000  0.000
       0.000  1.000  0.000
       0.000  0.000  1.000
     occupation matrix ns (before diag.):
       0.500  0.000  0.000
       0.000  0.500  0.000
       0.000  0.000  0.500
     ------------------------ ATOM   73 ------------------------
     Tr[ns( 73)] =   1.00000
     eigenvalues:
       0.167  0.167  0.167
     eigenvectors (columns):
       1.000  0.000  0.000
       0.000  1.000  0.000
       0.000  0.000  1.000
     occupation matrix ns (before diag.):
       0.167  0.000  0.000
       0.000  0.167  0.000
       0.000  0.000  0.167
     ------------------------ ATOM   74 ------------------------
     Tr[ns( 74)] =   1.00000
     eigenvalues:
       0.167  0.167  0.167
     eigenvectors (columns):
       1.000  0.000  0.000
       0.000  1.000  0.000
       0.000  0.000  1.000
     occupation matrix ns (before diag.):
       0.167  0.000  0.000
       0.000  0.167  0.000
       0.000  0.000  0.167
     ------------------------ ATOM   75 ------------------------
     Tr[ns( 75)] =   1.00000
     eigenvalues:
       0.167  0.167  0.167
     eigenvectors (columns):
       1.000  0.000  0.000
       0.000  1.000  0.000
       0.000  0.000  1.000
     occupation matrix ns (before diag.):
       0.167  0.000  0.000
       0.000  0.167  0.000
       0.000  0.000  0.167
     ------------------------ ATOM   76 ------------------------
     Tr[ns( 76)] =   1.00000
     eigenvalues:
       0.167  0.167  0.167
     eigenvectors (columns):
       1.000  0.000  0.000
       0.000  1.000  0.000
       0.000  0.000  1.000
     occupation matrix ns (before diag.):
       0.167  0.000  0.000
       0.000  0.167  0.000
       0.000  0.000  0.167
     ------------------------ ATOM   77 ------------------------
     Tr[ns( 77)] =   3.00000
     eigenvalues:
       0.500  0.500  0.500
     eigenvectors (columns):
       1.000  0.000  0.000
       0.000  1.000  0.000
       0.000  0.000  1.000
     occupation matrix ns (before diag.):
       0.500  0.000  0.000
       0.000  0.500  0.000
       0.000  0.000  0.500
     ------------------------ ATOM   78 ------------------------
     Tr[ns( 78)] =   3.00000
     eigenvalues:
       0.500  0.500  0.500
     eigenvectors (columns):
       1.000  0.000  0.000
       0.000  1.000  0.000
       0.000  0.000  1.000
     occupation matrix ns (before diag.):
       0.500  0.000  0.000
       0.000  0.500  0.000
       0.000  0.000  0.500
     ------------------------ ATOM   79 ------------------------
     Tr[ns( 79)] =   3.00000
     eigenvalues:
       0.500  0.500  0.500
     eigenvectors (columns):
       1.000  0.000  0.000
       0.000  1.000  0.000
       0.000  0.000  1.000
     occupation matrix ns (before diag.):
       0.500  0.000  0.000
       0.000  0.500  0.000
       0.000  0.000  0.500
     ------------------------ ATOM   80 ------------------------
     Tr[ns( 80)] =   3.00000
     eigenvalues:
       0.500  0.500  0.500
     eigenvectors (columns):
       1.000  0.000  0.000
       0.000  1.000  0.000
       0.000  0.000  1.000
     occupation matrix ns (before diag.):
       0.500  0.000  0.000
       0.000  0.500  0.000
       0.000  0.000  0.500
     ------------------------ ATOM   81 ------------------------
     Tr[ns( 81)] =   1.00000
     eigenvalues:
       0.167  0.167  0.167
     eigenvectors (columns):
       1.000  0.000  0.000
       0.000  1.000  0.000
       0.000  0.000  1.000
     occupation matrix ns (before diag.):
       0.167  0.000  0.000
       0.000  0.167  0.000
       0.000  0.000  0.167
     ------------------------ ATOM   82 ------------------------
     Tr[ns( 82)] =   1.00000
     eigenvalues:
       0.167  0.167  0.167
     eigenvectors (columns):
       1.000  0.000  0.000
       0.000  1.000  0.000
       0.000  0.000  1.000
     occupation matrix ns (before diag.):
       0.167  0.000  0.000
       0.000  0.167  0.000
       0.000  0.000  0.167
     ------------------------ ATOM   83 ------------------------
     Tr[ns( 83)] =   1.00000
     eigenvalues:
       0.167  0.167  0.167
     eigenvectors (columns):
       1.000  0.000  0.000
       0.000  1.000  0.000
       0.000  0.000  1.000
     occupation matrix ns (before diag.):
       0.167  0.000  0.000
       0.000  0.167  0.000
       0.000  0.000  0.167
     ------------------------ ATOM   84 ------------------------
     Tr[ns( 84)] =   1.00000
     eigenvalues:
       0.167  0.167  0.167
     eigenvectors (columns):
       1.000  0.000  0.000
       0.000  1.000  0.000
       0.000  0.000  1.000
     occupation matrix ns (before diag.):
       0.167  0.000  0.000
       0.000  0.167  0.000
       0.000  0.000  0.167
     ------------------------ ATOM   85 ------------------------
     Tr[ns( 85)] =   3.00000
     eigenvalues:
       0.500  0.500  0.500
     eigenvectors (columns):
       1.000  0.000  0.000
       0.000  1.000  0.000
       0.000  0.000  1.000
     occupation matrix ns (before diag.):
       0.500  0.000  0.000
       0.000  0.500  0.000
       0.000  0.000  0.500
     ------------------------ ATOM   86 ------------------------
     Tr[ns( 86)] =   3.00000
     eigenvalues:
       0.500  0.500  0.500
     eigenvectors (columns):
       1.000  0.000  0.000
       0.000  1.000  0.000
       0.000  0.000  1.000
     occupation matrix ns (before diag.):
       0.500  0.000  0.000
       0.000  0.500  0.000
       0.000  0.000  0.500
     ------------------------ ATOM   87 ------------------------
     Tr[ns( 87)] =   3.00000
     eigenvalues:
       0.500  0.500  0.500
     eigenvectors (columns):
       1.000  0.000  0.000
       0.000  1.000  0.000
       0.000  0.000  1.000
     occupation matrix ns (before diag.):
       0.500  0.000  0.000
       0.000  0.500  0.000
       0.000  0.000  0.500
     ------------------------ ATOM   88 ------------------------
     Tr[ns( 88)] =   3.00000
     eigenvalues:
       0.500  0.500  0.500
     eigenvectors (columns):
       1.000  0.000  0.000
       0.000  1.000  0.000
       0.000  0.000  1.000
     occupation matrix ns (before diag.):
       0.500  0.000  0.000
       0.000  0.500  0.000
       0.000  0.000  0.500
     ------------------------ ATOM   89 ------------------------
     Tr[ns( 89)] =   1.00000
     eigenvalues:
       0.167  0.167  0.167
     eigenvectors (columns):
       1.000  0.000  0.000
       0.000  1.000  0.000
       0.000  0.000  1.000
     occupation matrix ns (before diag.):
       0.167  0.000  0.000
       0.000  0.167  0.000
       0.000  0.000  0.167
     ------------------------ ATOM   90 ------------------------
     Tr[ns( 90)] =   1.00000
     eigenvalues:
       0.167  0.167  0.167
     eigenvectors (columns):
       1.000  0.000  0.000
       0.000  1.000  0.000
       0.000  0.000  1.000
     occupation matrix ns (before diag.):
       0.167  0.000  0.000
       0.000  0.167  0.000
       0.000  0.000  0.167
     ------------------------ ATOM   91 ------------------------
     Tr[ns( 91)] =   1.00000
     eigenvalues:
       0.167  0.167  0.167
     eigenvectors (columns):
       1.000  0.000  0.000
       0.000  1.000  0.000
       0.000  0.000  1.000
     occupation matrix ns (before diag.):
       0.167  0.000  0.000
       0.000  0.167  0.000
       0.000  0.000  0.167
     ------------------------ ATOM   92 ------------------------
     Tr[ns( 92)] =   1.00000
     eigenvalues:
       0.167  0.167  0.167
     eigenvectors (columns):
       1.000  0.000  0.000
       0.000  1.000  0.000
       0.000  0.000  1.000
     occupation matrix ns (before diag.):
       0.167  0.000  0.000
       0.000  0.167  0.000
       0.000  0.000  0.167
     ------------------------ ATOM   93 ------------------------
     Tr[ns( 93)] =   3.00000
     eigenvalues:
       0.500  0.500  0.500
     eigenvectors (columns):
       1.000  0.000  0.000
       0.000  1.000  0.000
       0.000  0.000  1.000
     occupation matrix ns (before diag.):
       0.500  0.000  0.000
       0.000  0.500  0.000
       0.000  0.000  0.500
     ------------------------ ATOM   94 ------------------------
     Tr[ns( 94)] =   3.00000
     eigenvalues:
       0.500  0.500  0.500
     eigenvectors (columns):
       1.000  0.000  0.000
       0.000  1.000  0.000
       0.000  0.000  1.000
     occupation matrix ns (before diag.):
       0.500  0.000  0.000
       0.000  0.500  0.000
       0.000  0.000  0.500
     ------------------------ ATOM   95 ------------------------
     Tr[ns( 95)] =   3.00000
     eigenvalues:
       0.500  0.500  0.500
     eigenvectors (columns):
       1.000  0.000  0.000
       0.000  1.000  0.000
       0.000  0.000  1.000
     occupation matrix ns (before diag.):
       0.500  0.000  0.000
       0.000  0.500  0.000
       0.000  0.000  0.500
     ------------------------ ATOM   96 ------------------------
     Tr[ns( 96)] =   3.00000
     eigenvalues:
       0.500  0.500  0.500
     eigenvectors (columns):
       1.000  0.000  0.000
       0.000  1.000  0.000
       0.000  0.000  1.000
     occupation matrix ns (before diag.):
       0.500  0.000  0.000
       0.000  0.500  0.000
       0.000  0.000  0.500
     ------------------------ ATOM   97 ------------------------
     Tr[ns( 97)] =   1.00000
     eigenvalues:
       0.167  0.167  0.167
     eigenvectors (columns):
       1.000  0.000  0.000
       0.000  1.000  0.000
       0.000  0.000  1.000
     occupation matrix ns (before diag.):
       0.167  0.000  0.000
       0.000  0.167  0.000
       0.000  0.000  0.167
     ------------------------ ATOM   98 ------------------------
     Tr[ns( 98)] =   1.00000
     eigenvalues:
       0.167  0.167  0.167
     eigenvectors (columns):
       1.000  0.000  0.000
       0.000  1.000  0.000
       0.000  0.000  1.000
     occupation matrix ns (before diag.):
       0.167  0.000  0.000
       0.000  0.167  0.000
       0.000  0.000  0.167
     ------------------------ ATOM   99 ------------------------
     Tr[ns( 99)] =   1.00000
     eigenvalues:
       0.167  0.167  0.167
     eigenvectors (columns):
       1.000  0.000  0.000
       0.000  1.000  0.000
       0.000  0.000  1.000
     occupation matrix ns (before diag.):
       0.167  0.000  0.000
       0.000  0.167  0.000
       0.000  0.000  0.167
     ------------------------ ATOM  100 ------------------------
     Tr[ns(100)] =   1.00000
     eigenvalues:
       0.167  0.167  0.167
     eigenvectors (columns):
       1.000  0.000  0.000
       0.000  1.000  0.000
       0.000  0.000  1.000
     occupation matrix ns (before diag.):
       0.167  0.000  0.000
       0.000  0.167  0.000
       0.000  0.000  0.167
     ------------------------ ATOM  101 ------------------------
     Tr[ns(101)] =   3.00000
     eigenvalues:
       0.500  0.500  0.500
     eigenvectors (columns):
       1.000  0.000  0.000
       0.000  1.000  0.000
       0.000  0.000  1.000
     occupation matrix ns (before diag.):
       0.500  0.000  0.000
       0.000  0.500  0.000
       0.000  0.000  0.500
     ------------------------ ATOM  102 ------------------------
     Tr[ns(102)] =   3.00000
     eigenvalues:
       0.500  0.500  0.500
     eigenvectors (columns):
       1.000  0.000  0.000
       0.000  1.000  0.000
       0.000  0.000  1.000
     occupation matrix ns (before diag.):
       0.500  0.000  0.000
       0.000  0.500  0.000
       0.000  0.000  0.500
     ------------------------ ATOM  103 ------------------------
     Tr[ns(103)] =   3.00000
     eigenvalues:
       0.500  0.500  0.500
     eigenvectors (columns):
       1.000  0.000  0.000
       0.000  1.000  0.000
       0.000  0.000  1.000
     occupation matrix ns (before diag.):
       0.500  0.000  0.000
       0.000  0.500  0.000
       0.000  0.000  0.500
     ------------------------ ATOM  104 ------------------------
     Tr[ns(104)] =   3.00000
     eigenvalues:
       0.500  0.500  0.500
     eigenvectors (columns):
       1.000  0.000  0.000
       0.000  1.000  0.000
       0.000  0.000  1.000
     occupation matrix ns (before diag.):
       0.500  0.000  0.000
       0.000  0.500  0.000
       0.000  0.000  0.500
     ------------------------ ATOM  105 ------------------------
     Tr[ns(105)] =   1.00000
     eigenvalues:
       0.167  0.167  0.167
     eigenvectors (columns):
       1.000  0.000  0.000
       0.000  1.000  0.000
       0.000  0.000  1.000
     occupation matrix ns (before diag.):
       0.167  0.000  0.000
       0.000  0.167  0.000
       0.000  0.000  0.167
     ------------------------ ATOM  106 ------------------------
     Tr[ns(106)] =   1.00000
     eigenvalues:
       0.167  0.167  0.167
     eigenvectors (columns):
       1.000  0.000  0.000
       0.000  1.000  0.000
       0.000  0.000  1.000
     occupation matrix ns (before diag.):
       0.167  0.000  0.000
       0.000  0.167  0.000
       0.000  0.000  0.167
     ------------------------ ATOM  107 ------------------------
     Tr[ns(107)] =   1.00000
     eigenvalues:
       0.167  0.167  0.167
     eigenvectors (columns):
       1.000  0.000  0.000
       0.000  1.000  0.000
       0.000  0.000  1.000
     occupation matrix ns (before diag.):
       0.167  0.000  0.000
       0.000  0.167  0.000
       0.000  0.000  0.167
     ------------------------ ATOM  108 ------------------------
     Tr[ns(108)] =   1.00000
     eigenvalues:
       0.167  0.167  0.167
     eigenvectors (columns):
       1.000  0.000  0.000
       0.000  1.000  0.000
       0.000  0.000  1.000
     occupation matrix ns (before diag.):
       0.167  0.000  0.000
       0.000  0.167  0.000
       0.000  0.000  0.167
     ------------------------ ATOM  109 ------------------------
     Tr[ns(109)] =   3.00000
     eigenvalues:
       0.500  0.500  0.500
     eigenvectors (columns):
       1.000  0.000  0.000
       0.000  1.000  0.000
       0.000  0.000  1.000
     occupation matrix ns (before diag.):
       0.500  0.000  0.000
       0.000  0.500  0.000
       0.000  0.000  0.500
     ------------------------ ATOM  110 ------------------------
     Tr[ns(110)] =   3.00000
     eigenvalues:
       0.500  0.500  0.500
     eigenvectors (columns):
       1.000  0.000  0.000
       0.000  1.000  0.000
       0.000  0.000  1.000
     occupation matrix ns (before diag.):
       0.500  0.000  0.000
       0.000  0.500  0.000
       0.000  0.000  0.500
     ------------------------ ATOM  111 ------------------------
     Tr[ns(111)] =   3.00000
     eigenvalues:
       0.500  0.500  0.500
     eigenvectors (columns):
       1.000  0.000  0.000
       0.000  1.000  0.000
       0.000  0.000  1.000
     occupation matrix ns (before diag.):
       0.500  0.000  0.000
       0.000  0.500  0.000
       0.000  0.000  0.500
     ------------------------ ATOM  112 ------------------------
     Tr[ns(112)] =   3.00000
     eigenvalues:
       0.500  0.500  0.500
     eigenvectors (columns):
       1.000  0.000  0.000
       0.000  1.000  0.000
       0.000  0.000  1.000
     occupation matrix ns (before diag.):
       0.500  0.000  0.000
       0.000  0.500  0.000
       0.000  0.000  0.500
     ------------------------ ATOM  113 ------------------------
     Tr[ns(113)] =   1.00000
     eigenvalues:
       0.167  0.167  0.167
     eigenvectors (columns):
       1.000  0.000  0.000
       0.000  1.000  0.000
       0.000  0.000  1.000
     occupation matrix ns (before diag.):
       0.167  0.000  0.000
       0.000  0.167  0.000
       0.000  0.000  0.167
     ------------------------ ATOM  114 ------------------------
     Tr[ns(114)] =   1.00000
     eigenvalues:
       0.167  0.167  0.167
     eigenvectors (columns):
       1.000  0.000  0.000
       0.000  1.000  0.000
       0.000  0.000  1.000
     occupation matrix ns (before diag.):
       0.167  0.000  0.000
       0.000  0.167  0.000
       0.000  0.000  0.167
     ------------------------ ATOM  115 ------------------------
     Tr[ns(115)] =   1.00000
     eigenvalues:
       0.167  0.167  0.167
     eigenvectors (columns):
       1.000  0.000  0.000
       0.000  1.000  0.000
       0.000  0.000  1.000
     occupation matrix ns (before diag.):
       0.167  0.000  0.000
       0.000  0.167  0.000
       0.000  0.000  0.167
     ------------------------ ATOM  116 ------------------------
     Tr[ns(116)] =   1.00000
     eigenvalues:
       0.167  0.167  0.167
     eigenvectors (columns):
       1.000  0.000  0.000
       0.000  1.000  0.000
       0.000  0.000  1.000
     occupation matrix ns (before diag.):
       0.167  0.000  0.000
       0.000  0.167  0.000
       0.000  0.000  0.167
     ------------------------ ATOM  117 ------------------------
     Tr[ns(117)] =   3.00000
     eigenvalues:
       0.500  0.500  0.500
     eigenvectors (columns):
       1.000  0.000  0.000
       0.000  1.000  0.000
       0.000  0.000  1.000
     occupation matrix ns (before diag.):
       0.500  0.000  0.000
       0.000  0.500  0.000
       0.000  0.000  0.500
     ------------------------ ATOM  118 ------------------------
     Tr[ns(118)] =   3.00000
     eigenvalues:
       0.500  0.500  0.500
     eigenvectors (columns):
       1.000  0.000  0.000
       0.000  1.000  0.000
       0.000  0.000  1.000
     occupation matrix ns (before diag.):
       0.500  0.000  0.000
       0.000  0.500  0.000
       0.000  0.000  0.500
     ------------------------ ATOM  119 ------------------------
     Tr[ns(119)] =   3.00000
     eigenvalues:
       0.500  0.500  0.500
     eigenvectors (columns):
       1.000  0.000  0.000
       0.000  1.000  0.000
       0.000  0.000  1.000
     occupation matrix ns (before diag.):
       0.500  0.000  0.000
       0.000  0.500  0.000
       0.000  0.000  0.500
     ------------------------ ATOM  120 ------------------------
     Tr[ns(120)] =   3.00000
     eigenvalues:
       0.500  0.500  0.500
     eigenvectors (columns):
       1.000  0.000  0.000
       0.000  1.000  0.000
       0.000  0.000  1.000
     occupation matrix ns (before diag.):
       0.500  0.000  0.000
       0.000  0.500  0.000
       0.000  0.000  0.500
     ------------------------ ATOM  121 ------------------------
     Tr[ns(121)] =   1.00000
     eigenvalues:
       0.167  0.167  0.167
     eigenvectors (columns):
       1.000  0.000  0.000
       0.000  1.000  0.000
       0.000  0.000  1.000
     occupation matrix ns (before diag.):
       0.167  0.000  0.000
       0.000  0.167  0.000
       0.000  0.000  0.167
     ------------------------ ATOM  122 ------------------------
     Tr[ns(122)] =   1.00000
     eigenvalues:
       0.167  0.167  0.167
     eigenvectors (columns):
       1.000  0.000  0.000
       0.000  1.000  0.000
       0.000  0.000  1.000
     occupation matrix ns (before diag.):
       0.167  0.000  0.000
       0.000  0.167  0.000
       0.000  0.000  0.167
     ------------------------ ATOM  123 ------------------------
     Tr[ns(123)] =   1.00000
     eigenvalues:
       0.167  0.167  0.167
     eigenvectors (columns):
       1.000  0.000  0.000
       0.000  1.000  0.000
       0.000  0.000  1.000
     occupation matrix ns (before diag.):
       0.167  0.000  0.000
       0.000  0.167  0.000
       0.000  0.000  0.167
     ------------------------ ATOM  124 ------------------------
     Tr[ns(124)] =   1.00000
     eigenvalues:
       0.167  0.167  0.167
     eigenvectors (columns):
       1.000  0.000  0.000
       0.000  1.000  0.000
       0.000  0.000  1.000
     occupation matrix ns (before diag.):
       0.167  0.000  0.000
       0.000  0.167  0.000
       0.000  0.000  0.167
     ------------------------ ATOM  125 ------------------------
     Tr[ns(125)] =   3.00000
     eigenvalues:
       0.500  0.500  0.500
     eigenvectors (columns):
       1.000  0.000  0.000
       0.000  1.000  0.000
       0.000  0.000  1.000
     occupation matrix ns (before diag.):
       0.500  0.000  0.000
       0.000  0.500  0.000
       0.000  0.000  0.500
     ------------------------ ATOM  126 ------------------------
     Tr[ns(126)] =   3.00000
     eigenvalues:
       0.500  0.500  0.500
     eigenvectors (columns):
       1.000  0.000  0.000
       0.000  1.000  0.000
       0.000  0.000  1.000
     occupation matrix ns (before diag.):
       0.500  0.000  0.000
       0.000  0.500  0.000
       0.000  0.000  0.500
     ------------------------ ATOM  127 ------------------------
     Tr[ns(127)] =   3.00000
     eigenvalues:
       0.500  0.500  0.500
     eigenvectors (columns):
       1.000  0.000  0.000
       0.000  1.000  0.000
       0.000  0.000  1.000
     occupation matrix ns (before diag.):
       0.500  0.000  0.000
       0.000  0.500  0.000
       0.000  0.000  0.500
     ------------------------ ATOM  128 ------------------------
     Tr[ns(128)] =   3.00000
     eigenvalues:
       0.500  0.500  0.500
     eigenvectors (columns):
       1.000  0.000  0.000
       0.000  1.000  0.000
       0.000  0.000  1.000
     occupation matrix ns (before diag.):
       0.500  0.000  0.000
       0.000  0.500  0.000
       0.000  0.000  0.500
     ------------------------ ATOM  129 ------------------------
     Tr[ns(129)] =   1.00000
     eigenvalues:
       0.167  0.167  0.167
     eigenvectors (columns):
       1.000  0.000  0.000
       0.000  1.000  0.000
       0.000  0.000  1.000
     occupation matrix ns (before diag.):
       0.167  0.000  0.000
       0.000  0.167  0.000
       0.000  0.000  0.167
     ------------------------ ATOM  130 ------------------------
     Tr[ns(130)] =   1.00000
     eigenvalues:
       0.167  0.167  0.167
     eigenvectors (columns):
       1.000  0.000  0.000
       0.000  1.000  0.000
       0.000  0.000  1.000
     occupation matrix ns (before diag.):
       0.167  0.000  0.000
       0.000  0.167  0.000
       0.000  0.000  0.167
     ------------------------ ATOM  131 ------------------------
     Tr[ns(131)] =   1.00000
     eigenvalues:
       0.167  0.167  0.167
     eigenvectors (columns):
       1.000  0.000  0.000
       0.000  1.000  0.000
       0.000  0.000  1.000
     occupation matrix ns (before diag.):
       0.167  0.000  0.000
       0.000  0.167  0.000
       0.000  0.000  0.167
     ------------------------ ATOM  132 ------------------------
     Tr[ns(132)] =   1.00000
     eigenvalues:
       0.167  0.167  0.167
     eigenvectors (columns):
       1.000  0.000  0.000
       0.000  1.000  0.000
       0.000  0.000  1.000
     occupation matrix ns (before diag.):
       0.167  0.000  0.000
       0.000  0.167  0.000
       0.000  0.000  0.167
     ------------------------ ATOM  133 ------------------------
     Tr[ns(133)] =   3.00000
     eigenvalues:
       0.500  0.500  0.500
     eigenvectors (columns):
       1.000  0.000  0.000
       0.000  1.000  0.000
       0.000  0.000  1.000
     occupation matrix ns (before diag.):
       0.500  0.000  0.000
       0.000  0.500  0.000
       0.000  0.000  0.500
     ------------------------ ATOM  134 ------------------------
     Tr[ns(134)] =   3.00000
     eigenvalues:
       0.500  0.500  0.500
     eigenvectors (columns):
       1.000  0.000  0.000
       0.000  1.000  0.000
       0.000  0.000  1.000
     occupation matrix ns (before diag.):
       0.500  0.000  0.000
       0.000  0.500  0.000
       0.000  0.000  0.500
     ------------------------ ATOM  135 ------------------------
     Tr[ns(135)] =   3.00000
     eigenvalues:
       0.500  0.500  0.500
     eigenvectors (columns):
       1.000  0.000  0.000
       0.000  1.000  0.000
       0.000  0.000  1.000
     occupation matrix ns (before diag.):
       0.500  0.000  0.000
       0.000  0.500  0.000
       0.000  0.000  0.500
     ------------------------ ATOM  136 ------------------------
     Tr[ns(136)] =   3.00000
     eigenvalues:
       0.500  0.500  0.500
     eigenvectors (columns):
       1.000  0.000  0.000
       0.000  1.000  0.000
       0.000  0.000  1.000
     occupation matrix ns (before diag.):
       0.500  0.000  0.000
       0.000  0.500  0.000
       0.000  0.000  0.500
     ------------------------ ATOM  137 ------------------------
     Tr[ns(137)] =   1.00000
     eigenvalues:
       0.167  0.167  0.167
     eigenvectors (columns):
       1.000  0.000  0.000
       0.000  1.000  0.000
       0.000  0.000  1.000
     occupation matrix ns (before diag.):
       0.167  0.000  0.000
       0.000  0.167  0.000
       0.000  0.000  0.167
     ------------------------ ATOM  138 ------------------------
     Tr[ns(138)] =   1.00000
     eigenvalues:
       0.167  0.167  0.167
     eigenvectors (columns):
       1.000  0.000  0.000
       0.000  1.000  0.000
       0.000  0.000  1.000
     occupation matrix ns (before diag.):
       0.167  0.000  0.000
       0.000  0.167  0.000
       0.000  0.000  0.167
     ------------------------ ATOM  139 ------------------------
     Tr[ns(139)] =   1.00000
     eigenvalues:
       0.167  0.167  0.167
     eigenvectors (columns):
       1.000  0.000  0.000
       0.000  1.000  0.000
       0.000  0.000  1.000
     occupation matrix ns (before diag.):
       0.167  0.000  0.000
       0.000  0.167  0.000
       0.000  0.000  0.167
     ------------------------ ATOM  140 ------------------------
     Tr[ns(140)] =   1.00000
     eigenvalues:
       0.167  0.167  0.167
     eigenvectors (columns):
       1.000  0.000  0.000
       0.000  1.000  0.000
       0.000  0.000  1.000
     occupation matrix ns (before diag.):
       0.167  0.000  0.000
       0.000  0.167  0.000
       0.000  0.000  0.167
     ------------------------ ATOM  141 ------------------------
     Tr[ns(141)] =   3.00000
     eigenvalues:
       0.500  0.500  0.500
     eigenvectors (columns):
       1.000  0.000  0.000
       0.000  1.000  0.000
       0.000  0.000  1.000
     occupation matrix ns (before diag.):
       0.500  0.000  0.000
       0.000  0.500  0.000
       0.000  0.000  0.500
     ------------------------ ATOM  142 ------------------------
     Tr[ns(142)] =   3.00000
     eigenvalues:
       0.500  0.500  0.500
     eigenvectors (columns):
       1.000  0.000  0.000
       0.000  1.000  0.000
       0.000  0.000  1.000
     occupation matrix ns (before diag.):
       0.500  0.000  0.000
       0.000  0.500  0.000
       0.000  0.000  0.500
     ------------------------ ATOM  143 ------------------------
     Tr[ns(143)] =   3.00000
     eigenvalues:
       0.500  0.500  0.500
     eigenvectors (columns):
       1.000  0.000  0.000
       0.000  1.000  0.000
       0.000  0.000  1.000
     occupation matrix ns (before diag.):
       0.500  0.000  0.000
       0.000  0.500  0.000
       0.000  0.000  0.500
     ------------------------ ATOM  144 ------------------------
     Tr[ns(144)] =   3.00000
     eigenvalues:
       0.500  0.500  0.500
     eigenvectors (columns):
       1.000  0.000  0.000
       0.000  1.000  0.000
       0.000  0.000  1.000
     occupation matrix ns (before diag.):
       0.500  0.000  0.000
       0.000  0.500  0.000
       0.000  0.000  0.500
     ------------------------ ATOM  145 ------------------------
     Tr[ns(145)] =   1.00000
     eigenvalues:
       0.167  0.167  0.167
     eigenvectors (columns):
       1.000  0.000  0.000
       0.000  1.000  0.000
       0.000  0.000  1.000
     occupation matrix ns (before diag.):
       0.167  0.000  0.000
       0.000  0.167  0.000
       0.000  0.000  0.167
     ------------------------ ATOM  146 ------------------------
     Tr[ns(146)] =   1.00000
     eigenvalues:
       0.167  0.167  0.167
     eigenvectors (columns):
       1.000  0.000  0.000
       0.000  1.000  0.000
       0.000  0.000  1.000
     occupation matrix ns (before diag.):
       0.167  0.000  0.000
       0.000  0.167  0.000
       0.000  0.000  0.167
     ------------------------ ATOM  147 ------------------------
     Tr[ns(147)] =   1.00000
     eigenvalues:
       0.167  0.167  0.167
     eigenvectors (columns):
       1.000  0.000  0.000
       0.000  1.000  0.000
       0.000  0.000  1.000
     occupation matrix ns (before diag.):
       0.167  0.000  0.000
       0.000  0.167  0.000
       0.000  0.000  0.167
     ------------------------ ATOM  148 ------------------------
     Tr[ns(148)] =   1.00000
     eigenvalues:
       0.167  0.167  0.167
     eigenvectors (columns):
       1.000  0.000  0.000
       0.000  1.000  0.000
       0.000  0.000  1.000
     occupation matrix ns (before diag.):
       0.167  0.000  0.000
       0.000  0.167  0.000
       0.000  0.000  0.167
     ------------------------ ATOM  149 ------------------------
     Tr[ns(149)] =   3.00000
     eigenvalues:
       0.500  0.500  0.500
     eigenvectors (columns):
       1.000  0.000  0.000
       0.000  1.000  0.000
       0.000  0.000  1.000
     occupation matrix ns (before diag.):
       0.500  0.000  0.000
       0.000  0.500  0.000
       0.000  0.000  0.500
     ------------------------ ATOM  150 ------------------------
     Tr[ns(150)] =   3.00000
     eigenvalues:
       0.500  0.500  0.500
     eigenvectors (columns):
       1.000  0.000  0.000
       0.000  1.000  0.000
       0.000  0.000  1.000
     occupation matrix ns (before diag.):
       0.500  0.000  0.000
       0.000  0.500  0.000
       0.000  0.000  0.500
     ------------------------ ATOM  151 ------------------------
     Tr[ns(151)] =   3.00000
     eigenvalues:
       0.500  0.500  0.500
     eigenvectors (columns):
       1.000  0.000  0.000
       0.000  1.000  0.000
       0.000  0.000  1.000
     occupation matrix ns (before diag.):
       0.500  0.000  0.000
       0.000  0.500  0.000
       0.000  0.000  0.500
     ------------------------ ATOM  152 ------------------------
[...]

     atom    1 type  3   force =     0.00003630   -0.00021985    0.00035548
     atom    2 type  3   force =    -0.00016567   -0.00047955    0.00001843
     atom    3 type  3   force =    -0.00013684   -0.00015831   -0.00004495
     atom    4 type  3   force =    -0.00020814   -0.00044160    0.00032266
     atom    5 type  1   force =     0.00009736   -0.00038406   -0.00002694
     atom    6 type  4   force =    -0.00003551   -0.00016554   -0.00007961
     atom    7 type  1   force =    -0.00010533   -0.00024773   -0.00014658
     atom    8 type  1   force =    -0.00021703   -0.00011551    0.00005543
     atom    9 type  3   force =    -0.00018682   -0.00018096   -0.00019190
     atom   10 type  3   force =    -0.00008259   -0.00007534   -0.00029771
     atom   11 type  3   force =    -0.00011554   -0.00012134   -0.00009101
     atom   12 type  3   force =    -0.00017935   -0.00041371   -0.00008691
     atom   13 type  4   force =    -0.00002665   -0.00033032    0.00023510
     atom   14 type  1   force =    -0.00001913   -0.00027007   -0.00010981
     atom   15 type  1   force =    -0.00022255   -0.00034316   -0.00000756
     atom   16 type  1   force =    -0.00012079   -0.00009315   -0.00010795
     atom   17 type  3   force =     0.00006816   -0.00029101   -0.00021560
     atom   18 type  3   force =    -0.00014895    0.00003677    0.00021374
     atom   19 type  3   force =    -0.00001888   -0.00032308    0.00024217
     atom   20 type  3   force =     0.00000183    0.00007391   -0.00041537
     atom   21 type  1   force =     0.00005245   -0.00000078   -0.00014393
     atom   22 type  1   force =     0.00014449   -0.00003641    0.00017113
     atom   23 type  1   force =     0.00005244    0.00006402    0.00008879
     atom   24 type  1   force =     0.00000634   -0.00030436    0.00008551
     atom   25 type  3   force =    -0.00003291   -0.00004265    0.00016144
     atom   26 type  3   force =     0.00006579    0.00019196   -0.00000959
     atom   27 type  3   force =     0.00004613    0.00000889    0.00009564
     atom   28 type  3   force =    -0.00016796    0.00017217    0.00041914
     atom   29 type  1   force =     0.00007437    0.00004793    0.00004659
     atom   30 type  1   force =     0.00005050    0.00024444    0.00019342
     atom   31 type  4   force =    -0.00011974    0.00015897    0.00003903
     atom   32 type  1   force =    -0.00023913    0.00020086    0.00022066
     atom   33 type  3   force =    -0.00005332   -0.00007676    0.00007821
     atom   34 type  3   force =     0.00011251    0.00017318   -0.00002936
     atom   35 type  3   force =    -0.00015735    0.00021656    0.00017924
     atom   36 type  3   force =    -0.00000818    0.00023889    0.00009848
     atom   37 type  4   force =    -0.00009557    0.00024155   -0.00008139
     atom   38 type  1   force =    -0.00001128   -0.00003780   -0.00006691
     atom   39 type  1   force =    -0.00008590    0.00014443   -0.00005970
     atom   40 type  1   force =    -0.00005150    0.00011434   -0.00011547
     atom   41 type  3   force =     0.00011596    0.00007169   -0.00027192
     atom   42 type  3   force =    -0.00016953    0.00027725    0.00001142
     atom   43 type  3   force =    -0.00005335   -0.00001452   -0.00007950
     atom   44 type  3   force =     0.00001173    0.00024395   -0.00045081
     atom   45 type  1   force =     0.00002520    0.00002235    0.00009464
     atom   46 type  1   force =    -0.00002444    0.00010278    0.00000128
     atom   47 type  1   force =    -0.00016674   -0.00011679   -0.00006561
     atom   48 type  4   force =    -0.00022905    0.00031813   -0.00023835
     atom   49 type  3   force =    -0.00000769    0.00032102   -0.00004918
     atom   50 type  3   force =     0.00001205    0.00017591    0.00004549
     atom   51 type  3   force =    -0.00006390    0.00018421    0.00017395
     atom   52 type  3   force =    -0.00009616    0.00002886    0.00014237
     atom   53 type  1   force =    -0.00002330    0.00025998    0.00040962
     atom   54 type  1   force =    -0.00003665   -0.00021136   -0.00010027
     atom   55 type  1   force =     0.00002558    0.00014254    0.00008955
     atom   56 type  1   force =    -0.00022883    0.00000062    0.00004581
     atom   57 type  3   force =    -0.00004174    0.00022857    0.00005975
     atom   58 type  3   force =     0.00015916    0.00005197   -0.00016376
     atom   59 type  3   force =    -0.00000429    0.00011020    0.00000849
     atom   60 type  3   force =     0.00004239   -0.00001834   -0.00012263
     atom   61 type  1   force =    -0.00004735    0.00004193   -0.00037687
     atom   62 type  4   force =     0.00023599    0.00003445   -0.00016232
     atom   63 type  1   force =    -0.00000246    0.00020098   -0.00019714
     atom   64 type  1   force =    -0.00009498   -0.00018700    0.00015118
     atom   65 type  3   force =     0.00002720    0.00008424   -0.00006763
     atom   66 type  3   force =    -0.00013581   -0.00012200    0.00015286
     atom   67 type  3   force =     0.00005740    0.00021223   -0.00015309
     atom   68 type  3   force =    -0.00002928   -0.00022245   -0.00013105
     atom   69 type  1   force =    -0.00002202    0.00016492    0.00005614
     atom   70 type  1   force =    -0.00007992   -0.00008348    0.00029673
     atom   71 type  4   force =    -0.00012156   -0.00007390    0.00028912
     atom   72 type  1   force =    -0.00009709   -0.00007254   -0.00005894
     atom   73 type  3   force =    -0.00004009   -0.00005708    0.00038882
     atom   74 type  3   force =    -0.00009725   -0.00029052    0.00027501
     atom   75 type  3   force =     0.00000795   -0.00005337    0.00014431
     atom   76 type  3   force =    -0.00013680   -0.00030595    0.00015690
     atom   77 type  1   force =    -0.00020135   -0.00019735    0.00019146
     atom   78 type  4   force =    -0.00023886   -0.00010939    0.00019793
     atom   79 type  1   force =    -0.00002334   -0.00015497    0.00030666
     atom   80 type  1   force =     0.00010538   -0.00009144    0.00023587
     atom   81 type  3   force =    -0.00008756    0.00000455   -0.00027859
     atom   82 type  3   force =    -0.00011633   -0.00006224   -0.00011009
     atom   83 type  3   force =     0.00000804   -0.00016152   -0.00039651
     atom   84 type  3   force =     0.00001319   -0.00009999   -0.00012816
     atom   85 type  1   force =     0.00016005   -0.00028524   -0.00020743
     atom   86 type  1   force =     0.00013126   -0.00010806    0.00010398
     atom   87 type  1   force =     0.00018600   -0.00029732   -0.00006585
     atom   88 type  1   force =     0.00000309   -0.00016719   -0.00000556
     atom   89 type  3   force =    -0.00024825   -0.00028409   -0.00002353
     atom   90 type  3   force =     0.00003859   -0.00009950    0.00014438
     atom   91 type  3   force =     0.00027027   -0.00048192    0.00023576
     atom   92 type  3   force =    -0.00011296    0.00012011    0.00000529
     atom   93 type  1   force =     0.00000173   -0.00010871    0.00012239
     atom   94 type  1   force =    -0.00018774   -0.00040570   -0.00019414
     atom   95 type  1   force =    -0.00012450   -0.00024292   -0.00006313
     atom   96 type  1   force =     0.00002680   -0.00023579   -0.00003604
     atom   97 type  3   force =     0.00015827    0.00001494    0.00019774
     atom   98 type  3   force =     0.00007388    0.00029100    0.00013771
     atom   99 type  3   force =    -0.00004650    0.00020836    0.00027615
     atom  100 type  3   force =     0.00034316    0.00017012    0.00015548
     atom  101 type  1   force =     0.00014578    0.00015386    0.00015450
     atom  102 type  1   force =    -0.00000772    0.00024219    0.00017706
     atom  103 type  1   force =     0.00002293    0.00003762    0.00000532
     atom  104 type  4   force =     0.00040137    0.00001037   -0.00004843
     atom  105 type  3   force =     0.00019495    0.00008705   -0.00002488
     atom  106 type  3   force =    -0.00027707    0.00015532   -0.00014010
     atom  107 type  3   force =     0.00003709    0.00026069   -0.00015808
     atom  108 type  3   force =     0.00007330    0.00016192   -0.00021125
     atom  109 type  4   force =    -0.00009402    0.00012345   -0.00007582
     atom  110 type  4   force =    -0.00023294    0.00034824   -0.00030935
     atom  111 type  4   force =     0.00003602    0.00007493   -0.00021883
     atom  112 type  1   force =     0.00000775    0.00027747   -0.00004614
     atom  113 type  3   force =    -0.00025134    0.00006693   -0.00040274
     atom  114 type  3   force =     0.00008899    0.00020504   -0.00010970
     atom  115 type  3   force =     0.00005006    0.00001694    0.00011847
     atom  116 type  3   force =     0.00000351    0.00024603   -0.00006714
     atom  117 type  1   force =    -0.00008297   -0.00036413   -0.00009114
     atom  118 type  4   force =     0.00017292    0.00020222    0.00016552
     atom  119 type  1   force =     0.00002988   -0.00010822    0.00035044
     atom  120 type  1   force =     0.00006673    0.00041064   -0.00015491
     atom  121 type  3   force =     0.00018511    0.00036657   -0.00020404
     atom  122 type  3   force =    -0.00019101    0.00005373    0.00017100
     atom  123 type  3   force =     0.00005872    0.00004616    0.00016067
     atom  124 type  3   force =     0.00020249    0.00000102   -0.00015514
     atom  125 type  4   force =    -0.00002122    0.00014594    0.00006689
     atom  126 type  1   force =    -0.00002048   -0.00011693    0.00032197
     atom  127 type  1   force =    -0.00006725    0.00020500    0.00018481
     atom  128 type  4   force =     0.00002608   -0.00011638    0.00001677
     atom  129 type  3   force =    -0.00006058    0.00024880   -0.00007027
     atom  130 type  3   force =    -0.00023157   -0.00017324   -0.00001976
     atom  131 type  3   force =    -0.00004498    0.00006534   -0.00018831
     atom  132 type  3   force =     0.00008550   -0.00002218   -0.00006892
     atom  133 type  4   force =    -0.00013066    0.00023697   -0.00016598
     atom  134 type  1   force =     0.00015997   -0.00010322   -0.00026226
     atom  135 type  1   force =     0.00016013    0.00021136   -0.00025413
     atom  136 type  1   force =     0.00013334   -0.00009225   -0.00000737
     atom  137 type  3   force =    -0.00024168    0.00019813   -0.00010857
     atom  138 type  3   force =     0.00005683   -0.00014412    0.00006741
     atom  139 type  3   force =     0.00032115    0.00041730   -0.00000716
     atom  140 type  3   force =     0.00028262   -0.00015574    0.00024793
     atom  141 type  1   force =    -0.00009657    0.00024911   -0.00005215
     atom  142 type  1   force =    -0.00002713    0.00004753   -0.00003603
     atom  143 type  1   force =     0.00008623    0.00028164   -0.00019447
     atom  144 type  1   force =     0.00014269   -0.00003140    0.00009228
     atom  145 type  3   force =    -0.00004145   -0.00032060    0.00021189
     atom  146 type  3   force =     0.00011615   -0.00030066    0.00046543
     atom  147 type  3   force =     0.00000460   -0.00010765    0.00017649
     atom  148 type  3   force =     0.00025398   -0.00033568    0.00038285
     atom  149 type  4   force =    -0.00009164   -0.00035435    0.00037289
     atom  150 type  4   force =     0.00013232   -0.00034928    0.00024430
     atom  151 type  1   force =    -0.00012750   -0.00026678    0.00023632
     atom  152 type  1   force =     0.00001388    0.00008303   -0.00003329
     atom  153 type  3   force =     0.00019476    0.00002936   -0.00009063
     atom  154 type  3   force =     0.00040672   -0.00017038   -0.00050044
     atom  155 type  3   force =     0.00006455    0.00014875   -0.00052596
     atom  156 type  3   force =    -0.00008760   -0.00014894   -0.00008382
     atom  157 type  1   force =     0.00001975   -0.00004945   -0.00019935
     atom  158 type  1   force =    -0.00015647   -0.00020257   -0.00009797
     atom  159 type  1   force =     0.00016781   -0.00012388   -0.00017405
     atom  160 type  4   force =    -0.00001398   -0.00050392   -0.00022032
     atom  161 type  3   force =     0.00023956   -0.00041528   -0.00006700
     atom  162 type  3   force =     0.00004793   -0.00012161    0.00021786
     atom  163 type  3   force =     0.00010229   -0.00036629    0.00009403
     atom  164 type  3   force =     0.00018640    0.00006418   -0.00030444
     atom  165 type  1   force =     0.00010476   -0.00024288   -0.00014679
     atom  166 type  1   force =     0.00015372   -0.00005685    0.00018585
     atom  167 type  1   force =     0.00015153   -0.00025765    0.00001644
     atom  168 type  1   force =     0.00005676    0.00000916    0.00023744
     atom  169 type  3   force =     0.00000648    0.00020919    0.00019272
     atom  170 type  3   force =    -0.00016982    0.00002436    0.00006573
     atom  171 type  3   force =    -0.00007060   -0.00016648    0.00023335
     atom  172 type  3   force =    -0.00009177    0.00020774    0.00005358
     atom  173 type  4   force =    -0.00017394    0.00022159    0.00028511
     atom  174 type  1   force =    -0.00001754   -0.00001211   -0.00023158
     atom  175 type  1   force =     0.00002957    0.00008425   -0.00011305
     atom  176 type  1   force =    -0.00007587    0.00018122    0.00001871
     atom  177 type  3   force =     0.00009691    0.00011099   -0.00017794
     atom  178 type  3   force =     0.00002519   -0.00005146   -0.00024841
     atom  179 type  3   force =    -0.00005163   -0.00013014   -0.00030529
     atom  180 type  3   force =    -0.00011285    0.00007137   -0.00017497
     atom  181 type  1   force =     0.00003611   -0.00004510   -0.00015229
     atom  182 type  4   force =    -0.00001282    0.00025200   -0.00001922
     atom  183 type  1   force =    -0.00001873    0.00017180   -0.00008146
     atom  184 type  4   force =     0.00027759    0.00041992   -0.00004440
     atom  185 type  3   force =     0.00000586    0.00013026   -0.00020205
     atom  186 type  3   force =    -0.00021912    0.00041517    0.00023501
     atom  187 type  3   force =     0.00009986   -0.00009159    0.00013027
     atom  188 type  3   force =     0.00000559    0.00023440   -0.00007012
     atom  189 type  1   force =     0.00017326   -0.00010466    0.00006673
     atom  190 type  1   force =     0.00009231    0.00023415    0.00008107
     atom  191 type  1   force =     0.00022548    0.00016993    0.00019290
     atom  192 type  4   force =    -0.00010566    0.00024847    0.00016917
     atom  193 type  3   force =    -0.00010843    0.00025557   -0.00016100
     atom  194 type  3   force =    -0.00003432    0.00010139    0.00004576
     atom  195 type  3   force =    -0.00007722    0.00006043    0.00015524
     atom  196 type  3   force =     0.00003537    0.00005277   -0.00016703
     atom  197 type  4   force =    -0.00005701   -0.00001981    0.00007984
     atom  198 type  1   force =    -0.00002753    0.00007175    0.00039145
     atom  199 type  4   force =     0.00027833    0.00001976    0.00006879
     atom  200 type  4   force =     0.00012850   -0.00014104    0.00021393
     atom  201 type  3   force =    -0.00002026    0.00009982   -0.00019187
     atom  202 type  3   force =     0.00020833   -0.00002994   -0.00026096
     atom  203 type  3   force =     0.00004444    0.00012038   -0.00022560
     atom  204 type  3   force =    -0.00008542    0.00010562   -0.00001061
     atom  205 type  1   force =     0.00013085    0.00009488   -0.00012597
     atom  206 type  1   force =    -0.00008068   -0.00003331   -0.00001135
     atom  207 type  1   force =    -0.00016550    0.00021138   -0.00022203
     atom  208 type  1   force =     0.00004151   -0.00013578   -0.00011072
     atom  209 type  3   force =     0.00008846    0.00029916    0.00018975
     atom  210 type  3   force =     0.00004577   -0.00033824   -0.00003552
     atom  211 type  3   force =    -0.00003416    0.00044243   -0.00007132
     atom  212 type  3   force =     0.00000717   -0.00004391    0.00012846
     atom  213 type  1   force =     0.00005661    0.00027993   -0.00003707
     atom  214 type  1   force =    -0.00000405   -0.00008623   -0.00022152
     atom  215 type  1   force =    -0.00002137    0.00017691   -0.00009480
     atom  216 type  4   force =     0.00004624   -0.00025766   -0.00017330

     Total force =     0.004532     Total SCF correction =     0.019951
     SCF correction compared to forces is large: reduce conv_thr to get better values


     Computing stress (Cartesian axis) and pressure

          total   stress  (Ry/bohr**3)                   (kbar)     P=       -0.03
  -0.00000016   0.00000007  -0.00000007           -0.02        0.01       -0.01
   0.00000007  -0.00000024   0.00000001            0.01       -0.04        0.00
  -0.00000007   0.00000001  -0.00000025           -0.01        0.00       -0.04


     Writing all to output data dir ./tmp_In1.0Ga0.0As0.75Sb0.25_cube_3x3x3.3/In1.0Ga0.0As0.75Sb0.25_cube_3x3x3.3.save/ :
     XML data file, charge density, pseudopotentials, collected wavefunctions

     init_run     :     75.10s CPU     97.27s WALL (       2 calls)
     electrons    :   1352.68s CPU   1361.16s WALL (       2 calls)
     forces       :     97.78s CPU     98.68s WALL (       2 calls)
     stress       :    306.88s CPU    307.54s WALL (       2 calls)

     Called by init_run:
     wfcinit      :     52.46s CPU     53.10s WALL (       2 calls)
     potinit      :      0.23s CPU      0.30s WALL (       2 calls)
     hinit0       :     16.56s CPU     37.94s WALL (       2 calls)

     Called by electrons:
     c_bands      :   1272.11s CPU   1279.66s WALL (      22 calls)
     sum_band     :     77.87s CPU     78.15s WALL (      22 calls)
     v_of_rho     :      2.11s CPU      2.15s WALL (      24 calls)
     mix_rho      :      0.27s CPU      0.27s WALL (      22 calls)

     Called by c_bands:
     init_us_2    :      3.66s CPU      3.78s WALL (      52 calls)
     regterg      :   1266.94s CPU   1272.89s WALL (      22 calls)

     Called by *egterg:
     rdiaghg      :    210.63s CPU    210.73s WALL (     145 calls)
     h_psi        :    837.86s CPU    841.80s WALL (     147 calls)
     g_psi        :      0.74s CPU      0.74s WALL (     123 calls)

     Called by h_psi:
     h_psi:calbec :     77.65s CPU     77.68s WALL (     147 calls)
     vloc_psi     :    415.20s CPU    416.84s WALL (     147 calls)
     vloc_psi:tg_ :      0.10s CPU      0.10s WALL (     147 calls)
     add_vuspsi   :     63.69s CPU     65.91s WALL (     147 calls)
     vhpsi        :    279.39s CPU    279.45s WALL (     147 calls)

     General routines
     calbec       :    180.39s CPU    180.58s WALL (    5538 calls)
     fft          :     17.41s CPU     38.69s WALL (     230 calls)
     ffts         :      0.21s CPU      0.21s WALL (      22 calls)
     fftw         :    475.37s CPU    477.18s WALL (  117068 calls)

     Parallel routines
     fft_scatt_xy :     15.15s CPU     15.21s WALL (  117320 calls)
     fft_scatt_yz :    414.08s CPU    436.88s WALL (  117320 calls)
     fft_scatt_tg :      2.13s CPU      2.17s WALL (  117068 calls)

     Hubbard U routines
     new_ns       :      4.01s CPU      4.04s WALL (      22 calls)
     vhpsi        :    279.39s CPU    279.45s WALL (     147 calls)
     force_hub    :     87.14s CPU     87.38s WALL (       2 calls)
                                        0.00s GPU  (       2 calls)
     stres_hub    :      6.95s CPU      7.15s WALL (       2 calls)
                                        0.00s GPU  (       2 calls)

     PWSCF        :  30m55.26s CPU  32m 4.15s WALL


   This run was terminated on:  15:25:46  28Jan2026            

=------------------------------------------------------------------------------=
   JOB DONE.
=------------------------------------------------------------------------------=
