
     Program PWSCF v.7.3.1 starts on 27Jan2026 at 18:41: 3 

     This program is part of the open-source Quantum ESPRESSO suite
     for quantum simulation of materials; please cite
         "P. Giannozzi et al., J. Phys.:Condens. Matter 21 395502 (2009);
         "P. Giannozzi et al., J. Phys.:Condens. Matter 29 465901 (2017);
         "P. Giannozzi et al., J. Chem. Phys. 152 154105 (2020);
          URL http://www.quantum-espresso.org", 
     in publications or presentations arising from this work. More details at
     http://www.quantum-espresso.org/quote

     Parallel version (MPI), running on   640 processors

     MPI processes distributed on     5 nodes
     421457 MiB available memory on the printing compute node when the environment starts

     Reading input from In1.0Ga0.0As0.5Sb0.5_cube_3x3x3.1.scf.in
Warning: card &CELL ignored
Warning: card   CELL_DOFREE = 'ALL', ignored
Warning: card / ignored

     Current dimensions of program PWSCF are:
     Max number of different atomic species (ntypx) = 10
     Max number of k-points (npk) =  40000
     Max angular momentum in pseudopotentials (lmaxx) =  4

     K-points division:     npool     =       8
     R & G space division:  proc/nbgrp/npool/nimage =      80
     Subspace diagonalization in iterative solution of the eigenvalue problem:
     one sub-group per band group will be used
     custom distributed-memory algorithm (size of sub-group:  8*  8 procs)


     Parallelization info
     --------------------
     sticks:   dense  smooth     PW     G-vecs:    dense   smooth      PW
     Min         610     610    156               101402   101402   13214
     Max         611     611    157               101408   101408   13223
     Sum       48817   48817  12557              8112473  8112473 1057603

     Using Slab Decomposition



     bravais-lattice index     =            1
     lattice parameter (alat)  =      35.7475  a.u.
     unit-cell volume          =   45681.3046 (a.u.)^3
     number of atoms/cell      =          216
     number of atomic types    =            4
     number of electrons       =      3024.00
     number of Kohn-Sham states=         2160
     kinetic-energy cutoff     =     120.0000  Ry
     charge density cutoff     =     480.0000  Ry
     scf convergence threshold =      1.0E-05
     mixing beta               =       0.6500
     number of iterations used =            8  plain     mixing
     Exchange-correlation= PBE
                           (   1   4   3   4   0   0   0)
     Hubbard projectors: atomic
     Hubbard parameters of DFT+U (Dudarev formulation) in eV:
     U(As-4p) =  3.2600
     U(Ga-4p) = -2.8000
     U(In-5p) = -1.0150
     U(Sb-5p) =  3.1600

     Internal variables: lda_plus_u =T, lda_plus_u_kind = 0

     celldm(1)=  35.747540  celldm(2)=   0.000000  celldm(3)=   0.000000
     celldm(4)=   0.000000  celldm(5)=   0.000000  celldm(6)=   0.000000

     crystal axes: (cart. coord. in units of alat)
               a(1) = (   1.000000   0.000000   0.000000 )  
               a(2) = (   0.000000   1.000000   0.000000 )  
               a(3) = (   0.000000   0.000000   1.000000 )  

     reciprocal axes: (cart. coord. in units 2 pi/alat)
               b(1) = (  1.000000  0.000000  0.000000 )  
               b(2) = (  0.000000  1.000000  0.000000 )  
               b(3) = (  0.000000  0.000000  1.000000 )  


     PseudoPot. # 1 for As read from file:
     /work/i254/i254/gentles/data/pseudos/As.pbe.NC-SR.standard.v0.5.UPF
     MD5 check sum: bfe1a874457ce592347346129958e7cf
     Pseudo is Norm-conserving + core correction, Zval = 15.0
     Generated using ONCVPSP code by D. R. Hamann
     Using radial grid of 1358 points,  6 beta functions with: 
                l(1) =   0
                l(2) =   0
                l(3) =   1
                l(4) =   1
                l(5) =   2
                l(6) =   2

     PseudoPot. # 2 for Ga read from file:
     /work/i254/i254/gentles/data/pseudos/Ga.pbe.NC-SR.standard.v0.5.UPF
     MD5 check sum: 2bb81bf6f0a8d9832cf3329850435ecf
     Pseudo is Norm-conserving + core correction, Zval = 13.0
     Generated using ONCVPSP code by D. R. Hamann
     Using radial grid of 1902 points,  6 beta functions with: 
                l(1) =   0
                l(2) =   0
                l(3) =   1
                l(4) =   1
                l(5) =   2
                l(6) =   2

     PseudoPot. # 3 for In read from file:
     /work/i254/i254/gentles/data/pseudos/In.pbe.NC-SR.standard.v0.5.UPF
     MD5 check sum: 835f4bf908c982ff75c88e16816a8d7f
     Pseudo is Norm-conserving + core correction, Zval = 13.0
     Generated using ONCVPSP code by D. R. Hamann
     Using radial grid of 1964 points,  6 beta functions with: 
                l(1) =   0
                l(2) =   0
                l(3) =   1
                l(4) =   1
                l(5) =   2
                l(6) =   2

     PseudoPot. # 4 for Sb read from file:
     /work/i254/i254/gentles/data/pseudos/Sb.pbe.NC-SR.standard.v0.5.UPF
     MD5 check sum: 127f69b6101c45666faeae1b5d611565
     Pseudo is Norm-conserving + core correction, Zval = 15.0
     Generated using ONCVPSP code by D. R. Hamann
     Using radial grid of 1434 points,  6 beta functions with: 
                l(1) =   0
                l(2) =   0
                l(3) =   1
                l(4) =   1
                l(5) =   2
                l(6) =   2

     atomic species   valence    mass     pseudopotential
     As               15.00    74.92160     As( 1.00)
     Ga               13.00    69.72300     Ga( 1.00)
     In               13.00   114.81800     In( 1.00)
     Sb               15.00   121.76000     Sb( 1.00)

     No symmetry found



   Cartesian axes

     site n.     atom                  positions (alat units)
         1        In     tau(   1) = (  -0.0009020  -0.0027710  -0.0008820  )
         2        In     tau(   2) = (   0.0063920   0.1602860   0.1602010  )
         3        In     tau(   3) = (   0.1693790   0.0026200   0.1619470  )
         4        In     tau(   4) = (   0.1661000   0.1582840  -0.0025660  )
         5        As     tau(   5) = (   0.0844210   0.0779240   0.0784770  )
         6        Sb     tau(   6) = (   0.0821480   0.2477570   0.2516430  )
         7        As     tau(   7) = (   0.2501910   0.0806780   0.2481270  )
         8        Sb     tau(   8) = (   0.2499510   0.2472920   0.0817500  )
         9        In     tau(   9) = (   0.0048290  -0.0007820   0.3367280  )
        10        In     tau(  10) = (   0.0000480   0.1669990   0.4930440  )
        11        In     tau(  11) = (   0.1569930  -0.0026280   0.5003560  )
        12        In     tau(  12) = (   0.1664990   0.1554850   0.3328210  )
        13        As     tau(  13) = (   0.0825270   0.0817920   0.4174020  )
        14        Sb     tau(  14) = (   0.0811860   0.2487430   0.5861250  )
        15        Sb     tau(  15) = (   0.2474130   0.0789780   0.5851480  )
        16        Sb     tau(  16) = (   0.2492390   0.2469470   0.4136050  )
        17        In     tau(  17) = (   0.0043910  -0.0056670   0.6722470  )
        18        In     tau(  18) = (  -0.0042200   0.1616550   0.8294040  )
        19        In     tau(  19) = (   0.1626410   0.0001340   0.8378810  )
        20        In     tau(  20) = (   0.1622580   0.1609060   0.6738420  )
        21        As     tau(  21) = (   0.0812130   0.0787780   0.7540850  )
        22        Sb     tau(  22) = (   0.0830630   0.2479900   0.9129370  )
        23        As     tau(  23) = (   0.2485640   0.0795380   0.9161030  )
        24        Sb     tau(  24) = (   0.2499930   0.2502370   0.7539890  )
        25        In     tau(  25) = (   0.0007300   0.3347180  -0.0013360  )
        26        In     tau(  26) = (  -0.0029560   0.5069550   0.1692040  )
        27        In     tau(  27) = (   0.1664840   0.3354570   0.1669780  )
        28        In     tau(  28) = (   0.1701290   0.5058220  -0.0033590  )
        29        Sb     tau(  29) = (   0.0831150   0.4226270   0.0829130  )
        30        As     tau(  30) = (   0.0811390   0.5884590   0.2480850  )
        31        Sb     tau(  31) = (   0.2513750   0.4222550   0.2503800  )
        32        As     tau(  32) = (   0.2457610   0.5866970   0.0840040  )
        33        In     tau(  33) = (  -0.0083180   0.3356620   0.3328690  )
        34        In     tau(  34) = (  -0.0021750   0.5102790   0.4989260  )
        35        In     tau(  35) = (   0.1655670   0.3332630   0.4995550  )
        36        In     tau(  36) = (   0.1638320   0.5102590   0.3318810  )
        37        Sb     tau(  37) = (   0.0803540   0.4211740   0.4153140  )
        38        As     tau(  38) = (   0.0806320   0.5867250   0.5830560  )
        39        Sb     tau(  39) = (   0.2482990   0.4199220   0.5840150  )
        40        As     tau(  40) = (   0.2471940   0.5882050   0.4145620  )
        41        In     tau(  41) = (  -0.0009970   0.3341480   0.6755640  )
        42        In     tau(  42) = (   0.0037190   0.5064610   0.8296240  )
        43        In     tau(  43) = (   0.1656030   0.3423790   0.8339210  )
        44        In     tau(  44) = (   0.1556570   0.5017000   0.6654010  )
        45        As     tau(  45) = (   0.0815150   0.4196750   0.7516230  )
        46        As     tau(  46) = (   0.0815320   0.5839240   0.9185810  )
        47        As     tau(  47) = (   0.2486350   0.4191550   0.9164360  )
        48        Sb     tau(  48) = (   0.2469630   0.5832560   0.7501670  )
        49        In     tau(  49) = (   0.0018750   0.6668790   0.0012840  )
        50        In     tau(  50) = (  -0.0037320   0.8280230   0.1633350  )
        51        In     tau(  51) = (   0.1632140   0.6689190   0.1645530  )
        52        In     tau(  52) = (   0.1598180   0.8379060   0.0055850  )
        53        As     tau(  53) = (   0.0812910   0.7496910   0.0830970  )
        54        Sb     tau(  54) = (   0.0852720   0.9139530   0.2464440  )
        55        As     tau(  55) = (   0.2490800   0.7469050   0.2454410  )
        56        As     tau(  56) = (   0.2464650   0.9161740   0.0846980  )
        57        In     tau(  57) = (  -0.0041360   0.6654550   0.3295330  )
        58        In     tau(  58) = (   0.0003380   0.8304550   0.5084910  )
        59        In     tau(  59) = (   0.1702740   0.6643930   0.5045430  )
        60        In     tau(  60) = (   0.1702820   0.8252870   0.3292940  )
        61        Sb     tau(  61) = (   0.0827650   0.7465520   0.4183680  )
        62        As     tau(  62) = (   0.0812130   0.9148990   0.5851540  )
        63        As     tau(  63) = (   0.2498860   0.7514410   0.5834180  )
        64        Sb     tau(  64) = (   0.2485240   0.9156990   0.4162090  )
        65        In     tau(  65) = (  -0.0048020   0.6651630   0.6636290  )
        66        In     tau(  66) = (  -0.0038550   0.8370670   0.8391340  )
        67        In     tau(  67) = (   0.1600720   0.6649620   0.8379160  )
        68        In     tau(  68) = (   0.1664600   0.8335740   0.6604680  )
        69        Sb     tau(  69) = (   0.0790310   0.7521340   0.7492860  )
        70        As     tau(  70) = (   0.0810480   0.9172730   0.9191930  )
        71        Sb     tau(  71) = (   0.2453830   0.7518290   0.9204070  )
        72        Sb     tau(  72) = (   0.2503260   0.9165510   0.7499390  )
        73        In     tau(  73) = (   0.3239460  -0.0033280   0.0001380  )
        74        In     tau(  74) = (   0.3340660   0.1663880   0.1737200  )
        75        In     tau(  75) = (   0.5020900  -0.0058790   0.1677130  )
        76        In     tau(  76) = (   0.4935570   0.1706180  -0.0040560  )
        77        Sb     tau(  77) = (   0.4143380   0.0802820   0.0837540  )
        78        As     tau(  78) = (   0.4189510   0.2483470   0.2501540  )
        79        As     tau(  79) = (   0.5809490   0.0787290   0.2487680  )
        80        Sb     tau(  80) = (   0.5820150   0.2487590   0.0853500  )
        81        In     tau(  81) = (   0.3339140  -0.0022490   0.3262620  )
        82        In     tau(  82) = (   0.3331780   0.1644610   0.5010000  )
        83        In     tau(  83) = (   0.5054230  -0.0061260   0.5041230  )
        84        In     tau(  84) = (   0.5011910   0.1642350   0.3272370  )
        85        Sb     tau(  85) = (   0.4194910   0.0787640   0.4161750  )
        86        Sb     tau(  86) = (   0.4189150   0.2486540   0.5863330  )
        87        As     tau(  87) = (   0.5832050   0.0798110   0.5872360  )
        88        Sb     tau(  88) = (   0.5842410   0.2483900   0.4169910  )
        89        In     tau(  89) = (   0.3411260   0.0000080   0.6675290  )
        90        In     tau(  90) = (   0.3349340   0.1602000   0.8367130  )
        91        In     tau(  91) = (   0.4987880  -0.0005720   0.8269070  )
        92        In     tau(  92) = (   0.5032950   0.1608840   0.6704980  )
        93        As     tau(  93) = (   0.4175600   0.0831690   0.7504450  )
        94        As     tau(  94) = (   0.4142400   0.2493340   0.9119550  )
        95        Sb     tau(  95) = (   0.5818580   0.0828510   0.9151230  )
        96        As     tau(  96) = (   0.5836350   0.2455720   0.7484030  )
        97        In     tau(  97) = (   0.3314490   0.3326060  -0.0089590  )
        98        In     tau(  98) = (   0.3320670   0.5104410   0.1641450  )
        99        In     tau(  99) = (   0.4988350   0.3346120   0.1723180  )
       100        In     tau( 100) = (   0.5023980   0.5020310   0.0010640  )
       101        Sb     tau( 101) = (   0.4137540   0.4173850   0.0825940  )
       102        As     tau( 102) = (   0.4146530   0.5863060   0.2497320  )
       103        As     tau( 103) = (   0.5809630   0.4194780   0.2494740  )
       104        Sb     tau( 104) = (   0.5867820   0.5882820   0.0872290  )
       105        In     tau( 105) = (   0.3368610   0.3294910   0.3285630  )
       106        In     tau( 106) = (   0.3275860   0.5064470   0.4944310  )
       107        In     tau( 107) = (   0.4999990   0.3357770   0.4997990  )
       108        In     tau( 108) = (   0.4989830   0.5028960   0.3256360  )
       109        Sb     tau( 109) = (   0.4155060   0.4195250   0.4138350  )
       110        Sb     tau( 110) = (   0.4150290   0.5839870   0.5861420  )
       111        Sb     tau( 111) = (   0.5852260   0.4189190   0.5866030  )
       112        Sb     tau( 112) = (   0.5876160   0.5844490   0.4127340  )
       113        In     tau( 113) = (   0.3365820   0.3371180   0.6703620  )
       114        In     tau( 114) = (   0.3327160   0.4929780   0.8325770  )
       115        In     tau( 115) = (   0.4985570   0.3265890   0.8283460  )
       116        In     tau( 116) = (   0.4998750   0.4999420   0.6767120  )
       117        As     tau( 117) = (   0.4181910   0.4144960   0.7531990  )
       118        Sb     tau( 118) = (   0.4150870   0.5843650   0.9146700  )
       119        Sb     tau( 119) = (   0.5837120   0.4158150   0.9134850  )
       120        As     tau( 120) = (   0.5847090   0.5850440   0.7504380  )
       121        In     tau( 121) = (   0.3288490   0.6652230   0.0048370  )
       122        In     tau( 122) = (   0.3280250   0.8370170   0.1697060  )
       123        In     tau( 123) = (   0.5002030   0.6699010   0.1769940  )
       124        In     tau( 124) = (   0.5024450   0.8360870   0.0041060  )
       125        Sb     tau( 125) = (   0.4153790   0.7515190   0.0879590  )
       126        As     tau( 126) = (   0.4167000   0.9153900   0.2478580  )
       127        As     tau( 127) = (   0.5856010   0.7523330   0.2513700  )
       128        As     tau( 128) = (   0.5837710   0.9133180   0.0861960  )
       129        In     tau( 129) = (   0.3286890   0.6656970   0.3288850  )
       130        In     tau( 130) = (   0.3338670   0.8356000   0.5074660  )
       131        In     tau( 131) = (   0.5000000   0.6664320   0.4983130  )
       132        In     tau( 132) = (   0.5025780   0.8372470   0.3295560  )
       133        Sb     tau( 133) = (   0.4144270   0.7523820   0.4140810  )
       134        As     tau( 134) = (   0.4195090   0.9167240   0.5858560  )
       135        Sb     tau( 135) = (   0.5847350   0.7516730   0.5828180  )
       136        As     tau( 136) = (   0.5831660   0.9154150   0.4155920  )
       137        In     tau( 137) = (   0.3315280   0.6750390   0.6678370  )
       138        In     tau( 138) = (   0.3357080   0.8269900   0.8310760  )
       139        In     tau( 139) = (   0.4998400   0.6683690   0.8256130  )
       140        In     tau( 140) = (   0.4989490   0.8372210   0.6691490  )
       141        As     tau( 141) = (   0.4181730   0.7518480   0.7473210  )
       142        Sb     tau( 142) = (   0.4155860   0.9163500   0.9161700  )
       143        Sb     tau( 143) = (   0.5846110   0.7508810   0.9153970  )
       144        As     tau( 144) = (   0.5817420   0.9194140   0.7477640  )
       145        In     tau( 145) = (   0.6622170  -0.0058730   0.0032410  )
       146        In     tau( 146) = (   0.6649290   0.1596290   0.1704400  )
       147        In     tau( 147) = (   0.8387050  -0.0096800   0.1642090  )
       148        In     tau( 148) = (   0.8373430   0.1596850  -0.0061060  )
       149        Sb     tau( 149) = (   0.7520750   0.0781730   0.0833800  )
       150        Sb     tau( 150) = (   0.7488100   0.2531250   0.2501700  )
       151        Sb     tau( 151) = (   0.9188720   0.0811730   0.2495910  )
       152        Sb     tau( 152) = (   0.9175390   0.2478560   0.0821580  )
       153        In     tau( 153) = (   0.6598190  -0.0007970   0.3331850  )
       154        In     tau( 154) = (   0.6655270   0.1646850   0.5100950  )
       155        In     tau( 155) = (   0.8335500  -0.0014910   0.5010980  )
       156        In     tau( 156) = (   0.8357350   0.1702850   0.3358760  )
       157        Sb     tau( 157) = (   0.7476750   0.0837200   0.4177700  )
       158        As     tau( 158) = (   0.7497500   0.2472160   0.5867830  )
       159        Sb     tau( 159) = (   0.9198510   0.0828010   0.5857690  )
       160        As     tau( 160) = (   0.9163060   0.2504820   0.4170460  )
       161        In     tau( 161) = (   0.6654460   0.0017660   0.6700040  )
       162        In     tau( 162) = (   0.6676520   0.1644990   0.8264560  )
       163        In     tau( 163) = (   0.8362630   0.0029090   0.8288210  )
       164        In     tau( 164) = (   0.8314210   0.1685330   0.6694540  )
       165        As     tau( 165) = (   0.7512130   0.0830770   0.7483010  )
       166        Sb     tau( 166) = (   0.7523030   0.2482700   0.9130930  )
       167        As     tau( 167) = (   0.9192290   0.0789830   0.9139190  )
       168        As     tau( 168) = (   0.9163480   0.2475580   0.7501700  )
       169        In     tau( 169) = (   0.6694700   0.3333350   0.0010980  )
       170        In     tau( 170) = (   0.6678980   0.5023250   0.1758210  )
       171        In     tau( 171) = (   0.8391750   0.3383850   0.1697700  )
       172        In     tau( 172) = (   0.8353380   0.5104110   0.0007770  )
       173        Sb     tau( 173) = (   0.7526120   0.4219470   0.0853110  )
       174        As     tau( 174) = (   0.7533700   0.5866020   0.2503870  )
       175        As     tau( 175) = (   0.9173370   0.4227870   0.2505540  )
       176        As     tau( 176) = (   0.9176720   0.5884950   0.0842300  )
       177        In     tau( 177) = (   0.6619120   0.3404560   0.3317800  )
       178        In     tau( 178) = (   0.6739640   0.5053110   0.5047040  )
       179        In     tau( 179) = (   0.8332550   0.3253970   0.5028190  )
       180        In     tau( 180) = (   0.8374310   0.5066700   0.3316310  )
       181        Sb     tau( 181) = (   0.7542040   0.4179740   0.4170660  )
       182        As     tau( 182) = (   0.7542580   0.5881590   0.5831690  )
       183        Sb     tau( 183) = (   0.9168420   0.4187290   0.5848140  )
       184        As     tau( 184) = (   0.9148990   0.5886910   0.4157400  )
       185        In     tau( 185) = (   0.6665080   0.3264880   0.6677780  )
       186        In     tau( 186) = (   0.6684700   0.5090000   0.8350000  )
       187        In     tau( 187) = (   0.8386740   0.3327250   0.8292060  )
       188        In     tau( 188) = (   0.8339730   0.5089770   0.6673220  )
       189        Sb     tau( 189) = (   0.7496270   0.4193630   0.7489440  )
       190        As     tau( 190) = (   0.7543420   0.5871550   0.9164890  )
       191        Sb     tau( 191) = (   0.9179630   0.4224470   0.9147710  )
       192        As     tau( 192) = (   0.9182420   0.5860500   0.7503880  )
       193        In     tau( 193) = (   0.6765170   0.6689150  -0.0010260  )
       194        In     tau( 194) = (   0.6644530   0.8268330   0.1617060  )
       195        In     tau( 195) = (   0.8332190   0.6666990   0.1653260  )
       196        In     tau( 196) = (   0.8375940   0.8282030   0.0022020  )
       197        As     tau( 197) = (   0.7533820   0.7495230   0.0834930  )
       198        Sb     tau( 198) = (   0.7478430   0.9111790   0.2500250  )
       199        As     tau( 199) = (   0.9157080   0.7466660   0.2466910  )
       200        As     tau( 200) = (   0.9193440   0.9119460   0.0804380  )
       201        In     tau( 201) = (   0.6727180   0.6718120   0.3289470  )
       202        In     tau( 202) = (   0.6687970   0.8322850   0.4906120  )
       203        In     tau( 203) = (   0.8329380   0.6697800   0.4988720  )
       204        In     tau( 204) = (   0.8354830   0.8241630   0.3318010  )
       205        As     tau( 205) = (   0.7524490   0.7486230   0.4147760  )
       206        Sb     tau( 206) = (   0.7495800   0.9135120   0.5853370  )
       207        As     tau( 207) = (   0.9160200   0.7477800   0.5830440  )
       208        Sb     tau( 208) = (   0.9181420   0.9118510   0.4177050  )
       209        In     tau( 209) = (   0.6682160   0.6613650   0.6656600  )
       210        In     tau( 210) = (   0.6638810   0.8382140   0.8270470  )
       211        In     tau( 211) = (   0.8407830   0.6658130   0.8381400  )
       212        In     tau( 212) = (   0.8421280   0.8316200   0.6679880  )
       213        Sb     tau( 213) = (   0.7533670   0.7477480   0.7510110  )
       214        Sb     tau( 214) = (   0.7526620   0.9157630   0.9157500  )
       215        As     tau( 215) = (   0.9202190   0.7487650   0.9201420  )
       216        As     tau( 216) = (   0.9182290   0.9165920   0.7520990  )

     number of k points=     8
                       cart. coord. in units 2pi/alat
        k(    1) = (   0.0000000   0.0000000   0.0000000), wk =   0.2500000
        k(    2) = (   0.0000000   0.0000000  -0.5000000), wk =   0.2500000
        k(    3) = (   0.0000000  -0.5000000  -0.5000000), wk =   0.2500000
        k(    4) = (  -0.5000000  -0.5000000  -0.5000000), wk =   0.2500000
        k(    5) = (  -0.5000000   0.0000000   0.0000000), wk =   0.2500000
        k(    6) = (   0.0000000  -0.5000000   0.0000000), wk =   0.2500000
        k(    7) = (  -0.5000000   0.0000000   0.5000000), wk =   0.2500000
        k(    8) = (  -0.5000000   0.5000000   0.0000000), wk =   0.2500000

     Dense  grid:  8112473 G-vectors     FFT dimensions: ( 250, 250, 250)

     Estimated max dynamical RAM per process >       3.11 GB

     Estimated total dynamical RAM >    1975.96 GB

     Initial potential from superposition of free atoms

     starting charge    3023.5361, renormalised to    3024.0000

     STARTING HUBBARD OCCUPATIONS:

     =================== HUBBARD OCCUPATIONS ===================
     ------------------------ ATOM    1 ------------------------
     Tr[ns(  1)] =   1.00000
     eigenvalues:
       0.167  0.167  0.167
     eigenvectors (columns):
       1.000  0.000  0.000
       0.000  1.000  0.000
       0.000  0.000  1.000
     occupation matrix ns (before diag.):
       0.167  0.000  0.000
       0.000  0.167  0.000
       0.000  0.000  0.167
     ------------------------ ATOM    2 ------------------------
     Tr[ns(  2)] =   1.00000
     eigenvalues:
       0.167  0.167  0.167
     eigenvectors (columns):
       1.000  0.000  0.000
       0.000  1.000  0.000
       0.000  0.000  1.000
     occupation matrix ns (before diag.):
       0.167  0.000  0.000
       0.000  0.167  0.000
       0.000  0.000  0.167
     ------------------------ ATOM    3 ------------------------
     Tr[ns(  3)] =   1.00000
     eigenvalues:
       0.167  0.167  0.167
     eigenvectors (columns):
       1.000  0.000  0.000
       0.000  1.000  0.000
       0.000  0.000  1.000
     occupation matrix ns (before diag.):
       0.167  0.000  0.000
       0.000  0.167  0.000
       0.000  0.000  0.167
     ------------------------ ATOM    4 ------------------------
     Tr[ns(  4)] =   1.00000
     eigenvalues:
       0.167  0.167  0.167
     eigenvectors (columns):
       1.000  0.000  0.000
       0.000  1.000  0.000
       0.000  0.000  1.000
     occupation matrix ns (before diag.):
       0.167  0.000  0.000
       0.000  0.167  0.000
       0.000  0.000  0.167
     ------------------------ ATOM    5 ------------------------
     Tr[ns(  5)] =   3.00000
     eigenvalues:
       0.500  0.500  0.500
     eigenvectors (columns):
       1.000  0.000  0.000
       0.000  1.000  0.000
       0.000  0.000  1.000
     occupation matrix ns (before diag.):
       0.500  0.000  0.000
       0.000  0.500  0.000
       0.000  0.000  0.500
     ------------------------ ATOM    6 ------------------------
     Tr[ns(  6)] =   3.00000
     eigenvalues:
       0.500  0.500  0.500
     eigenvectors (columns):
       1.000  0.000  0.000
       0.000  1.000  0.000
       0.000  0.000  1.000
     occupation matrix ns (before diag.):
       0.500  0.000  0.000
       0.000  0.500  0.000
       0.000  0.000  0.500
     ------------------------ ATOM    7 ------------------------
     Tr[ns(  7)] =   3.00000
     eigenvalues:
       0.500  0.500  0.500
     eigenvectors (columns):
       1.000  0.000  0.000
       0.000  1.000  0.000
       0.000  0.000  1.000
     occupation matrix ns (before diag.):
       0.500  0.000  0.000
       0.000  0.500  0.000
       0.000  0.000  0.500
     ------------------------ ATOM    8 ------------------------
     Tr[ns(  8)] =   3.00000
     eigenvalues:
       0.500  0.500  0.500
     eigenvectors (columns):
       1.000  0.000  0.000
       0.000  1.000  0.000
       0.000  0.000  1.000
     occupation matrix ns (before diag.):
       0.500  0.000  0.000
       0.000  0.500  0.000
       0.000  0.000  0.500
     ------------------------ ATOM    9 ------------------------
     Tr[ns(  9)] =   1.00000
     eigenvalues:
       0.167  0.167  0.167
     eigenvectors (columns):
       1.000  0.000  0.000
       0.000  1.000  0.000
       0.000  0.000  1.000
     occupation matrix ns (before diag.):
       0.167  0.000  0.000
       0.000  0.167  0.000
       0.000  0.000  0.167
     ------------------------ ATOM   10 ------------------------
     Tr[ns( 10)] =   1.00000
     eigenvalues:
       0.167  0.167  0.167
     eigenvectors (columns):
       1.000  0.000  0.000
       0.000  1.000  0.000
       0.000  0.000  1.000
     occupation matrix ns (before diag.):
       0.167  0.000  0.000
       0.000  0.167  0.000
       0.000  0.000  0.167
     ------------------------ ATOM   11 ------------------------
     Tr[ns( 11)] =   1.00000
     eigenvalues:
       0.167  0.167  0.167
     eigenvectors (columns):
       1.000  0.000  0.000
       0.000  1.000  0.000
       0.000  0.000  1.000
     occupation matrix ns (before diag.):
       0.167  0.000  0.000
       0.000  0.167  0.000
       0.000  0.000  0.167
     ------------------------ ATOM   12 ------------------------
     Tr[ns( 12)] =   1.00000
     eigenvalues:
       0.167  0.167  0.167
     eigenvectors (columns):
       1.000  0.000  0.000
       0.000  1.000  0.000
       0.000  0.000  1.000
     occupation matrix ns (before diag.):
       0.167  0.000  0.000
       0.000  0.167  0.000
       0.000  0.000  0.167
     ------------------------ ATOM   13 ------------------------
     Tr[ns( 13)] =   3.00000
     eigenvalues:
       0.500  0.500  0.500
     eigenvectors (columns):
       1.000  0.000  0.000
       0.000  1.000  0.000
       0.000  0.000  1.000
     occupation matrix ns (before diag.):
       0.500  0.000  0.000
       0.000  0.500  0.000
       0.000  0.000  0.500
     ------------------------ ATOM   14 ------------------------
     Tr[ns( 14)] =   3.00000
     eigenvalues:
       0.500  0.500  0.500
     eigenvectors (columns):
       1.000  0.000  0.000
       0.000  1.000  0.000
       0.000  0.000  1.000
     occupation matrix ns (before diag.):
       0.500  0.000  0.000
       0.000  0.500  0.000
       0.000  0.000  0.500
     ------------------------ ATOM   15 ------------------------
     Tr[ns( 15)] =   3.00000
     eigenvalues:
       0.500  0.500  0.500
     eigenvectors (columns):
       1.000  0.000  0.000
       0.000  1.000  0.000
       0.000  0.000  1.000
     occupation matrix ns (before diag.):
       0.500  0.000  0.000
       0.000  0.500  0.000
       0.000  0.000  0.500
     ------------------------ ATOM   16 ------------------------
     Tr[ns( 16)] =   3.00000
     eigenvalues:
       0.500  0.500  0.500
     eigenvectors (columns):
       1.000  0.000  0.000
       0.000  1.000  0.000
       0.000  0.000  1.000
     occupation matrix ns (before diag.):
       0.500  0.000  0.000
       0.000  0.500  0.000
       0.000  0.000  0.500
     ------------------------ ATOM   17 ------------------------
     Tr[ns( 17)] =   1.00000
     eigenvalues:
       0.167  0.167  0.167
     eigenvectors (columns):
       1.000  0.000  0.000
       0.000  1.000  0.000
       0.000  0.000  1.000
     occupation matrix ns (before diag.):
       0.167  0.000  0.000
       0.000  0.167  0.000
       0.000  0.000  0.167
     ------------------------ ATOM   18 ------------------------
     Tr[ns( 18)] =   1.00000
     eigenvalues:
       0.167  0.167  0.167
     eigenvectors (columns):
       1.000  0.000  0.000
       0.000  1.000  0.000
       0.000  0.000  1.000
     occupation matrix ns (before diag.):
       0.167  0.000  0.000
       0.000  0.167  0.000
       0.000  0.000  0.167
     ------------------------ ATOM   19 ------------------------
     Tr[ns( 19)] =   1.00000
     eigenvalues:
       0.167  0.167  0.167
     eigenvectors (columns):
       1.000  0.000  0.000
       0.000  1.000  0.000
       0.000  0.000  1.000
     occupation matrix ns (before diag.):
       0.167  0.000  0.000
       0.000  0.167  0.000
       0.000  0.000  0.167
     ------------------------ ATOM   20 ------------------------
     Tr[ns( 20)] =   1.00000
     eigenvalues:
       0.167  0.167  0.167
     eigenvectors (columns):
       1.000  0.000  0.000
       0.000  1.000  0.000
       0.000  0.000  1.000
     occupation matrix ns (before diag.):
       0.167  0.000  0.000
       0.000  0.167  0.000
       0.000  0.000  0.167
     ------------------------ ATOM   21 ------------------------
     Tr[ns( 21)] =   3.00000
     eigenvalues:
       0.500  0.500  0.500
     eigenvectors (columns):
       1.000  0.000  0.000
       0.000  1.000  0.000
       0.000  0.000  1.000
     occupation matrix ns (before diag.):
       0.500  0.000  0.000
       0.000  0.500  0.000
       0.000  0.000  0.500
     ------------------------ ATOM   22 ------------------------
     Tr[ns( 22)] =   3.00000
     eigenvalues:
       0.500  0.500  0.500
     eigenvectors (columns):
       1.000  0.000  0.000
       0.000  1.000  0.000
       0.000  0.000  1.000
     occupation matrix ns (before diag.):
       0.500  0.000  0.000
       0.000  0.500  0.000
       0.000  0.000  0.500
     ------------------------ ATOM   23 ------------------------
     Tr[ns( 23)] =   3.00000
     eigenvalues:
       0.500  0.500  0.500
     eigenvectors (columns):
       1.000  0.000  0.000
       0.000  1.000  0.000
       0.000  0.000  1.000
     occupation matrix ns (before diag.):
       0.500  0.000  0.000
       0.000  0.500  0.000
       0.000  0.000  0.500
     ------------------------ ATOM   24 ------------------------
     Tr[ns( 24)] =   3.00000
     eigenvalues:
       0.500  0.500  0.500
     eigenvectors (columns):
       1.000  0.000  0.000
       0.000  1.000  0.000
       0.000  0.000  1.000
     occupation matrix ns (before diag.):
       0.500  0.000  0.000
       0.000  0.500  0.000
       0.000  0.000  0.500
     ------------------------ ATOM   25 ------------------------
     Tr[ns( 25)] =   1.00000
     eigenvalues:
       0.167  0.167  0.167
     eigenvectors (columns):
       1.000  0.000  0.000
       0.000  1.000  0.000
       0.000  0.000  1.000
     occupation matrix ns (before diag.):
       0.167  0.000  0.000
       0.000  0.167  0.000
       0.000  0.000  0.167
     ------------------------ ATOM   26 ------------------------
     Tr[ns( 26)] =   1.00000
     eigenvalues:
       0.167  0.167  0.167
     eigenvectors (columns):
       1.000  0.000  0.000
       0.000  1.000  0.000
       0.000  0.000  1.000
     occupation matrix ns (before diag.):
       0.167  0.000  0.000
       0.000  0.167  0.000
       0.000  0.000  0.167
     ------------------------ ATOM   27 ------------------------
     Tr[ns( 27)] =   1.00000
     eigenvalues:
       0.167  0.167  0.167
     eigenvectors (columns):
       1.000  0.000  0.000
       0.000  1.000  0.000
       0.000  0.000  1.000
     occupation matrix ns (before diag.):
       0.167  0.000  0.000
       0.000  0.167  0.000
       0.000  0.000  0.167
     ------------------------ ATOM   28 ------------------------
     Tr[ns( 28)] =   1.00000
     eigenvalues:
       0.167  0.167  0.167
     eigenvectors (columns):
       1.000  0.000  0.000
       0.000  1.000  0.000
       0.000  0.000  1.000
     occupation matrix ns (before diag.):
       0.167  0.000  0.000
       0.000  0.167  0.000
       0.000  0.000  0.167
     ------------------------ ATOM   29 ------------------------
     Tr[ns( 29)] =   3.00000
     eigenvalues:
       0.500  0.500  0.500
     eigenvectors (columns):
       1.000  0.000  0.000
       0.000  1.000  0.000
       0.000  0.000  1.000
     occupation matrix ns (before diag.):
       0.500  0.000  0.000
       0.000  0.500  0.000
       0.000  0.000  0.500
     ------------------------ ATOM   30 ------------------------
     Tr[ns( 30)] =   3.00000
     eigenvalues:
       0.500  0.500  0.500
     eigenvectors (columns):
       1.000  0.000  0.000
       0.000  1.000  0.000
       0.000  0.000  1.000
     occupation matrix ns (before diag.):
       0.500  0.000  0.000
       0.000  0.500  0.000
       0.000  0.000  0.500
     ------------------------ ATOM   31 ------------------------
     Tr[ns( 31)] =   3.00000
     eigenvalues:
       0.500  0.500  0.500
     eigenvectors (columns):
       1.000  0.000  0.000
       0.000  1.000  0.000
       0.000  0.000  1.000
     occupation matrix ns (before diag.):
       0.500  0.000  0.000
       0.000  0.500  0.000
       0.000  0.000  0.500
     ------------------------ ATOM   32 ------------------------
     Tr[ns( 32)] =   3.00000
     eigenvalues:
       0.500  0.500  0.500
     eigenvectors (columns):
       1.000  0.000  0.000
       0.000  1.000  0.000
       0.000  0.000  1.000
     occupation matrix ns (before diag.):
       0.500  0.000  0.000
       0.000  0.500  0.000
       0.000  0.000  0.500
     ------------------------ ATOM   33 ------------------------
     Tr[ns( 33)] =   1.00000
     eigenvalues:
       0.167  0.167  0.167
     eigenvectors (columns):
       1.000  0.000  0.000
       0.000  1.000  0.000
       0.000  0.000  1.000
     occupation matrix ns (before diag.):
       0.167  0.000  0.000
       0.000  0.167  0.000
       0.000  0.000  0.167
     ------------------------ ATOM   34 ------------------------
     Tr[ns( 34)] =   1.00000
     eigenvalues:
       0.167  0.167  0.167
     eigenvectors (columns):
       1.000  0.000  0.000
       0.000  1.000  0.000
       0.000  0.000  1.000
     occupation matrix ns (before diag.):
       0.167  0.000  0.000
       0.000  0.167  0.000
       0.000  0.000  0.167
     ------------------------ ATOM   35 ------------------------
     Tr[ns( 35)] =   1.00000
     eigenvalues:
       0.167  0.167  0.167
     eigenvectors (columns):
       1.000  0.000  0.000
       0.000  1.000  0.000
       0.000  0.000  1.000
     occupation matrix ns (before diag.):
       0.167  0.000  0.000
       0.000  0.167  0.000
       0.000  0.000  0.167
     ------------------------ ATOM   36 ------------------------
     Tr[ns( 36)] =   1.00000
     eigenvalues:
       0.167  0.167  0.167
     eigenvectors (columns):
       1.000  0.000  0.000
       0.000  1.000  0.000
       0.000  0.000  1.000
     occupation matrix ns (before diag.):
       0.167  0.000  0.000
       0.000  0.167  0.000
       0.000  0.000  0.167
     ------------------------ ATOM   37 ------------------------
     Tr[ns( 37)] =   3.00000
     eigenvalues:
       0.500  0.500  0.500
     eigenvectors (columns):
       1.000  0.000  0.000
       0.000  1.000  0.000
       0.000  0.000  1.000
     occupation matrix ns (before diag.):
       0.500  0.000  0.000
       0.000  0.500  0.000
       0.000  0.000  0.500
     ------------------------ ATOM   38 ------------------------
     Tr[ns( 38)] =   3.00000
     eigenvalues:
       0.500  0.500  0.500
     eigenvectors (columns):
       1.000  0.000  0.000
       0.000  1.000  0.000
       0.000  0.000  1.000
     occupation matrix ns (before diag.):
       0.500  0.000  0.000
       0.000  0.500  0.000
       0.000  0.000  0.500
     ------------------------ ATOM   39 ------------------------
     Tr[ns( 39)] =   3.00000
     eigenvalues:
       0.500  0.500  0.500
     eigenvectors (columns):
       1.000  0.000  0.000
       0.000  1.000  0.000
       0.000  0.000  1.000
     occupation matrix ns (before diag.):
       0.500  0.000  0.000
       0.000  0.500  0.000
       0.000  0.000  0.500
     ------------------------ ATOM   40 ------------------------
     Tr[ns( 40)] =   3.00000
     eigenvalues:
       0.500  0.500  0.500
     eigenvectors (columns):
       1.000  0.000  0.000
       0.000  1.000  0.000
       0.000  0.000  1.000
     occupation matrix ns (before diag.):
       0.500  0.000  0.000
       0.000  0.500  0.000
       0.000  0.000  0.500
     ------------------------ ATOM   41 ------------------------
     Tr[ns( 41)] =   1.00000
     eigenvalues:
       0.167  0.167  0.167
     eigenvectors (columns):
       1.000  0.000  0.000
       0.000  1.000  0.000
       0.000  0.000  1.000
     occupation matrix ns (before diag.):
       0.167  0.000  0.000
       0.000  0.167  0.000
       0.000  0.000  0.167
     ------------------------ ATOM   42 ------------------------
     Tr[ns( 42)] =   1.00000
     eigenvalues:
       0.167  0.167  0.167
     eigenvectors (columns):
       1.000  0.000  0.000
       0.000  1.000  0.000
       0.000  0.000  1.000
     occupation matrix ns (before diag.):
       0.167  0.000  0.000
       0.000  0.167  0.000
       0.000  0.000  0.167
     ------------------------ ATOM   43 ------------------------
     Tr[ns( 43)] =   1.00000
     eigenvalues:
       0.167  0.167  0.167
     eigenvectors (columns):
       1.000  0.000  0.000
       0.000  1.000  0.000
       0.000  0.000  1.000
     occupation matrix ns (before diag.):
       0.167  0.000  0.000
       0.000  0.167  0.000
       0.000  0.000  0.167
     ------------------------ ATOM   44 ------------------------
     Tr[ns( 44)] =   1.00000
     eigenvalues:
       0.167  0.167  0.167
     eigenvectors (columns):
       1.000  0.000  0.000
       0.000  1.000  0.000
       0.000  0.000  1.000
     occupation matrix ns (before diag.):
       0.167  0.000  0.000
       0.000  0.167  0.000
       0.000  0.000  0.167
     ------------------------ ATOM   45 ------------------------
     Tr[ns( 45)] =   3.00000
     eigenvalues:
       0.500  0.500  0.500
     eigenvectors (columns):
       1.000  0.000  0.000
       0.000  1.000  0.000
       0.000  0.000  1.000
     occupation matrix ns (before diag.):
       0.500  0.000  0.000
       0.000  0.500  0.000
       0.000  0.000  0.500
     ------------------------ ATOM   46 ------------------------
     Tr[ns( 46)] =   3.00000
     eigenvalues:
       0.500  0.500  0.500
     eigenvectors (columns):
       1.000  0.000  0.000
       0.000  1.000  0.000
       0.000  0.000  1.000
     occupation matrix ns (before diag.):
       0.500  0.000  0.000
       0.000  0.500  0.000
       0.000  0.000  0.500
     ------------------------ ATOM   47 ------------------------
     Tr[ns( 47)] =   3.00000
     eigenvalues:
       0.500  0.500  0.500
     eigenvectors (columns):
       1.000  0.000  0.000
       0.000  1.000  0.000
       0.000  0.000  1.000
     occupation matrix ns (before diag.):
       0.500  0.000  0.000
       0.000  0.500  0.000
       0.000  0.000  0.500
     ------------------------ ATOM   48 ------------------------
     Tr[ns( 48)] =   3.00000
     eigenvalues:
       0.500  0.500  0.500
     eigenvectors (columns):
       1.000  0.000  0.000
       0.000  1.000  0.000
       0.000  0.000  1.000
     occupation matrix ns (before diag.):
       0.500  0.000  0.000
       0.000  0.500  0.000
       0.000  0.000  0.500
     ------------------------ ATOM   49 ------------------------
     Tr[ns( 49)] =   1.00000
     eigenvalues:
       0.167  0.167  0.167
     eigenvectors (columns):
       1.000  0.000  0.000
       0.000  1.000  0.000
       0.000  0.000  1.000
     occupation matrix ns (before diag.):
       0.167  0.000  0.000
       0.000  0.167  0.000
       0.000  0.000  0.167
     ------------------------ ATOM   50 ------------------------
     Tr[ns( 50)] =   1.00000
     eigenvalues:
       0.167  0.167  0.167
     eigenvectors (columns):
       1.000  0.000  0.000
       0.000  1.000  0.000
       0.000  0.000  1.000
     occupation matrix ns (before diag.):
       0.167  0.000  0.000
       0.000  0.167  0.000
       0.000  0.000  0.167
     ------------------------ ATOM   51 ------------------------
     Tr[ns( 51)] =   1.00000
     eigenvalues:
       0.167  0.167  0.167
     eigenvectors (columns):
       1.000  0.000  0.000
       0.000  1.000  0.000
       0.000  0.000  1.000
     occupation matrix ns (before diag.):
       0.167  0.000  0.000
       0.000  0.167  0.000
       0.000  0.000  0.167
     ------------------------ ATOM   52 ------------------------
     Tr[ns( 52)] =   1.00000
     eigenvalues:
       0.167  0.167  0.167
     eigenvectors (columns):
       1.000  0.000  0.000
       0.000  1.000  0.000
       0.000  0.000  1.000
     occupation matrix ns (before diag.):
       0.167  0.000  0.000
       0.000  0.167  0.000
       0.000  0.000  0.167
     ------------------------ ATOM   53 ------------------------
     Tr[ns( 53)] =   3.00000
     eigenvalues:
       0.500  0.500  0.500
     eigenvectors (columns):
       1.000  0.000  0.000
       0.000  1.000  0.000
       0.000  0.000  1.000
     occupation matrix ns (before diag.):
       0.500  0.000  0.000
       0.000  0.500  0.000
       0.000  0.000  0.500
     ------------------------ ATOM   54 ------------------------
     Tr[ns( 54)] =   3.00000
     eigenvalues:
       0.500  0.500  0.500
     eigenvectors (columns):
       1.000  0.000  0.000
       0.000  1.000  0.000
       0.000  0.000  1.000
     occupation matrix ns (before diag.):
       0.500  0.000  0.000
       0.000  0.500  0.000
       0.000  0.000  0.500
     ------------------------ ATOM   55 ------------------------
     Tr[ns( 55)] =   3.00000
     eigenvalues:
       0.500  0.500  0.500
     eigenvectors (columns):
       1.000  0.000  0.000
       0.000  1.000  0.000
       0.000  0.000  1.000
     occupation matrix ns (before diag.):
       0.500  0.000  0.000
       0.000  0.500  0.000
       0.000  0.000  0.500
     ------------------------ ATOM   56 ------------------------
     Tr[ns( 56)] =   3.00000
     eigenvalues:
       0.500  0.500  0.500
     eigenvectors (columns):
       1.000  0.000  0.000
       0.000  1.000  0.000
       0.000  0.000  1.000
     occupation matrix ns (before diag.):
       0.500  0.000  0.000
       0.000  0.500  0.000
       0.000  0.000  0.500
     ------------------------ ATOM   57 ------------------------
     Tr[ns( 57)] =   1.00000
     eigenvalues:
       0.167  0.167  0.167
     eigenvectors (columns):
       1.000  0.000  0.000
       0.000  1.000  0.000
       0.000  0.000  1.000
     occupation matrix ns (before diag.):
       0.167  0.000  0.000
       0.000  0.167  0.000
       0.000  0.000  0.167
     ------------------------ ATOM   58 ------------------------
     Tr[ns( 58)] =   1.00000
     eigenvalues:
       0.167  0.167  0.167
     eigenvectors (columns):
       1.000  0.000  0.000
       0.000  1.000  0.000
       0.000  0.000  1.000
     occupation matrix ns (before diag.):
       0.167  0.000  0.000
       0.000  0.167  0.000
       0.000  0.000  0.167
     ------------------------ ATOM   59 ------------------------
     Tr[ns( 59)] =   1.00000
     eigenvalues:
       0.167  0.167  0.167
     eigenvectors (columns):
       1.000  0.000  0.000
       0.000  1.000  0.000
       0.000  0.000  1.000
     occupation matrix ns (before diag.):
       0.167  0.000  0.000
       0.000  0.167  0.000
       0.000  0.000  0.167
     ------------------------ ATOM   60 ------------------------
     Tr[ns( 60)] =   1.00000
     eigenvalues:
       0.167  0.167  0.167
     eigenvectors (columns):
       1.000  0.000  0.000
       0.000  1.000  0.000
       0.000  0.000  1.000
     occupation matrix ns (before diag.):
       0.167  0.000  0.000
       0.000  0.167  0.000
       0.000  0.000  0.167
     ------------------------ ATOM   61 ------------------------
     Tr[ns( 61)] =   3.00000
     eigenvalues:
       0.500  0.500  0.500
     eigenvectors (columns):
       1.000  0.000  0.000
       0.000  1.000  0.000
       0.000  0.000  1.000
     occupation matrix ns (before diag.):
       0.500  0.000  0.000
       0.000  0.500  0.000
       0.000  0.000  0.500
     ------------------------ ATOM   62 ------------------------
     Tr[ns( 62)] =   3.00000
     eigenvalues:
       0.500  0.500  0.500
     eigenvectors (columns):
       1.000  0.000  0.000
       0.000  1.000  0.000
       0.000  0.000  1.000
     occupation matrix ns (before diag.):
       0.500  0.000  0.000
       0.000  0.500  0.000
       0.000  0.000  0.500
     ------------------------ ATOM   63 ------------------------
     Tr[ns( 63)] =   3.00000
     eigenvalues:
       0.500  0.500  0.500
     eigenvectors (columns):
       1.000  0.000  0.000
       0.000  1.000  0.000
       0.000  0.000  1.000
     occupation matrix ns (before diag.):
       0.500  0.000  0.000
       0.000  0.500  0.000
       0.000  0.000  0.500
     ------------------------ ATOM   64 ------------------------
     Tr[ns( 64)] =   3.00000
     eigenvalues:
       0.500  0.500  0.500
     eigenvectors (columns):
       1.000  0.000  0.000
       0.000  1.000  0.000
       0.000  0.000  1.000
     occupation matrix ns (before diag.):
       0.500  0.000  0.000
       0.000  0.500  0.000
       0.000  0.000  0.500
     ------------------------ ATOM   65 ------------------------
     Tr[ns( 65)] =   1.00000
     eigenvalues:
       0.167  0.167  0.167
     eigenvectors (columns):
       1.000  0.000  0.000
       0.000  1.000  0.000
       0.000  0.000  1.000
     occupation matrix ns (before diag.):
       0.167  0.000  0.000
       0.000  0.167  0.000
       0.000  0.000  0.167
     ------------------------ ATOM   66 ------------------------
     Tr[ns( 66)] =   1.00000
     eigenvalues:
       0.167  0.167  0.167
     eigenvectors (columns):
       1.000  0.000  0.000
       0.000  1.000  0.000
       0.000  0.000  1.000
     occupation matrix ns (before diag.):
       0.167  0.000  0.000
       0.000  0.167  0.000
       0.000  0.000  0.167
     ------------------------ ATOM   67 ------------------------
     Tr[ns( 67)] =   1.00000
     eigenvalues:
       0.167  0.167  0.167
     eigenvectors (columns):
       1.000  0.000  0.000
       0.000  1.000  0.000
       0.000  0.000  1.000
     occupation matrix ns (before diag.):
       0.167  0.000  0.000
       0.000  0.167  0.000
       0.000  0.000  0.167
     ------------------------ ATOM   68 ------------------------
     Tr[ns( 68)] =   1.00000
     eigenvalues:
       0.167  0.167  0.167
     eigenvectors (columns):
       1.000  0.000  0.000
       0.000  1.000  0.000
       0.000  0.000  1.000
     occupation matrix ns (before diag.):
       0.167  0.000  0.000
       0.000  0.167  0.000
       0.000  0.000  0.167
     ------------------------ ATOM   69 ------------------------
     Tr[ns( 69)] =   3.00000
     eigenvalues:
       0.500  0.500  0.500
     eigenvectors (columns):
       1.000  0.000  0.000
       0.000  1.000  0.000
       0.000  0.000  1.000
     occupation matrix ns (before diag.):
       0.500  0.000  0.000
       0.000  0.500  0.000
       0.000  0.000  0.500
     ------------------------ ATOM   70 ------------------------
     Tr[ns( 70)] =   3.00000
     eigenvalues:
       0.500  0.500  0.500
     eigenvectors (columns):
       1.000  0.000  0.000
       0.000  1.000  0.000
       0.000  0.000  1.000
     occupation matrix ns (before diag.):
       0.500  0.000  0.000
       0.000  0.500  0.000
       0.000  0.000  0.500
     ------------------------ ATOM   71 ------------------------
     Tr[ns( 71)] =   3.00000
     eigenvalues:
       0.500  0.500  0.500
     eigenvectors (columns):
       1.000  0.000  0.000
       0.000  1.000  0.000
       0.000  0.000  1.000
     occupation matrix ns (before diag.):
       0.500  0.000  0.000
       0.000  0.500  0.000
       0.000  0.000  0.500
     ------------------------ ATOM   72 ------------------------
     Tr[ns( 72)] =   3.00000
     eigenvalues:
       0.500  0.500  0.500
     eigenvectors (columns):
       1.000  0.000  0.000
       0.000  1.000  0.000
       0.000  0.000  1.000
     occupation matrix ns (before diag.):
       0.500  0.000  0.000
       0.000  0.500  0.000
       0.000  0.000  0.500
     ------------------------ ATOM   73 ------------------------
     Tr[ns( 73)] =   1.00000
     eigenvalues:
       0.167  0.167  0.167
     eigenvectors (columns):
       1.000  0.000  0.000
       0.000  1.000  0.000
       0.000  0.000  1.000
     occupation matrix ns (before diag.):
       0.167  0.000  0.000
       0.000  0.167  0.000
       0.000  0.000  0.167
     ------------------------ ATOM   74 ------------------------
     Tr[ns( 74)] =   1.00000
     eigenvalues:
       0.167  0.167  0.167
     eigenvectors (columns):
       1.000  0.000  0.000
       0.000  1.000  0.000
       0.000  0.000  1.000
     occupation matrix ns (before diag.):
       0.167  0.000  0.000
       0.000  0.167  0.000
       0.000  0.000  0.167
     ------------------------ ATOM   75 ------------------------
     Tr[ns( 75)] =   1.00000
     eigenvalues:
       0.167  0.167  0.167
     eigenvectors (columns):
       1.000  0.000  0.000
       0.000  1.000  0.000
       0.000  0.000  1.000
     occupation matrix ns (before diag.):
       0.167  0.000  0.000
       0.000  0.167  0.000
       0.000  0.000  0.167
     ------------------------ ATOM   76 ------------------------
     Tr[ns( 76)] =   1.00000
     eigenvalues:
       0.167  0.167  0.167
     eigenvectors (columns):
       1.000  0.000  0.000
       0.000  1.000  0.000
       0.000  0.000  1.000
     occupation matrix ns (before diag.):
       0.167  0.000  0.000
       0.000  0.167  0.000
       0.000  0.000  0.167
     ------------------------ ATOM   77 ------------------------
     Tr[ns( 77)] =   3.00000
     eigenvalues:
       0.500  0.500  0.500
     eigenvectors (columns):
       1.000  0.000  0.000
       0.000  1.000  0.000
       0.000  0.000  1.000
     occupation matrix ns (before diag.):
       0.500  0.000  0.000
       0.000  0.500  0.000
       0.000  0.000  0.500
     ------------------------ ATOM   78 ------------------------
     Tr[ns( 78)] =   3.00000
     eigenvalues:
       0.500  0.500  0.500
     eigenvectors (columns):
       1.000  0.000  0.000
       0.000  1.000  0.000
       0.000  0.000  1.000
     occupation matrix ns (before diag.):
       0.500  0.000  0.000
       0.000  0.500  0.000
       0.000  0.000  0.500
     ------------------------ ATOM   79 ------------------------
     Tr[ns( 79)] =   3.00000
     eigenvalues:
       0.500  0.500  0.500
     eigenvectors (columns):
       1.000  0.000  0.000
       0.000  1.000  0.000
       0.000  0.000  1.000
     occupation matrix ns (before diag.):
       0.500  0.000  0.000
       0.000  0.500  0.000
       0.000  0.000  0.500
     ------------------------ ATOM   80 ------------------------
     Tr[ns( 80)] =   3.00000
     eigenvalues:
       0.500  0.500  0.500
     eigenvectors (columns):
       1.000  0.000  0.000
       0.000  1.000  0.000
       0.000  0.000  1.000
     occupation matrix ns (before diag.):
       0.500  0.000  0.000
       0.000  0.500  0.000
       0.000  0.000  0.500
     ------------------------ ATOM   81 ------------------------
     Tr[ns( 81)] =   1.00000
     eigenvalues:
       0.167  0.167  0.167
     eigenvectors (columns):
       1.000  0.000  0.000
       0.000  1.000  0.000
       0.000  0.000  1.000
     occupation matrix ns (before diag.):
       0.167  0.000  0.000
       0.000  0.167  0.000
       0.000  0.000  0.167
     ------------------------ ATOM   82 ------------------------
     Tr[ns( 82)] =   1.00000
     eigenvalues:
       0.167  0.167  0.167
     eigenvectors (columns):
       1.000  0.000  0.000
       0.000  1.000  0.000
       0.000  0.000  1.000
     occupation matrix ns (before diag.):
       0.167  0.000  0.000
       0.000  0.167  0.000
       0.000  0.000  0.167
     ------------------------ ATOM   83 ------------------------
     Tr[ns( 83)] =   1.00000
     eigenvalues:
       0.167  0.167  0.167
     eigenvectors (columns):
       1.000  0.000  0.000
       0.000  1.000  0.000
       0.000  0.000  1.000
     occupation matrix ns (before diag.):
       0.167  0.000  0.000
       0.000  0.167  0.000
       0.000  0.000  0.167
     ------------------------ ATOM   84 ------------------------
     Tr[ns( 84)] =   1.00000
     eigenvalues:
       0.167  0.167  0.167
     eigenvectors (columns):
       1.000  0.000  0.000
       0.000  1.000  0.000
       0.000  0.000  1.000
     occupation matrix ns (before diag.):
       0.167  0.000  0.000
       0.000  0.167  0.000
       0.000  0.000  0.167
     ------------------------ ATOM   85 ------------------------
     Tr[ns( 85)] =   3.00000
     eigenvalues:
       0.500  0.500  0.500
     eigenvectors (columns):
       1.000  0.000  0.000
       0.000  1.000  0.000
       0.000  0.000  1.000
     occupation matrix ns (before diag.):
       0.500  0.000  0.000
       0.000  0.500  0.000
       0.000  0.000  0.500
     ------------------------ ATOM   86 ------------------------
     Tr[ns( 86)] =   3.00000
     eigenvalues:
       0.500  0.500  0.500
     eigenvectors (columns):
       1.000  0.000  0.000
       0.000  1.000  0.000
       0.000  0.000  1.000
     occupation matrix ns (before diag.):
       0.500  0.000  0.000
       0.000  0.500  0.000
       0.000  0.000  0.500
     ------------------------ ATOM   87 ------------------------
     Tr[ns( 87)] =   3.00000
     eigenvalues:
       0.500  0.500  0.500
     eigenvectors (columns):
       1.000  0.000  0.000
       0.000  1.000  0.000
       0.000  0.000  1.000
     occupation matrix ns (before diag.):
       0.500  0.000  0.000
       0.000  0.500  0.000
       0.000  0.000  0.500
     ------------------------ ATOM   88 ------------------------
     Tr[ns( 88)] =   3.00000
     eigenvalues:
       0.500  0.500  0.500
     eigenvectors (columns):
       1.000  0.000  0.000
       0.000  1.000  0.000
       0.000  0.000  1.000
     occupation matrix ns (before diag.):
       0.500  0.000  0.000
       0.000  0.500  0.000
       0.000  0.000  0.500
     ------------------------ ATOM   89 ------------------------
     Tr[ns( 89)] =   1.00000
     eigenvalues:
       0.167  0.167  0.167
     eigenvectors (columns):
       1.000  0.000  0.000
       0.000  1.000  0.000
       0.000  0.000  1.000
     occupation matrix ns (before diag.):
       0.167  0.000  0.000
       0.000  0.167  0.000
       0.000  0.000  0.167
     ------------------------ ATOM   90 ------------------------
     Tr[ns( 90)] =   1.00000
     eigenvalues:
       0.167  0.167  0.167
     eigenvectors (columns):
       1.000  0.000  0.000
       0.000  1.000  0.000
       0.000  0.000  1.000
     occupation matrix ns (before diag.):
       0.167  0.000  0.000
       0.000  0.167  0.000
       0.000  0.000  0.167
     ------------------------ ATOM   91 ------------------------
     Tr[ns( 91)] =   1.00000
     eigenvalues:
       0.167  0.167  0.167
     eigenvectors (columns):
       1.000  0.000  0.000
       0.000  1.000  0.000
       0.000  0.000  1.000
     occupation matrix ns (before diag.):
       0.167  0.000  0.000
       0.000  0.167  0.000
       0.000  0.000  0.167
     ------------------------ ATOM   92 ------------------------
     Tr[ns( 92)] =   1.00000
     eigenvalues:
       0.167  0.167  0.167
     eigenvectors (columns):
       1.000  0.000  0.000
       0.000  1.000  0.000
       0.000  0.000  1.000
     occupation matrix ns (before diag.):
       0.167  0.000  0.000
       0.000  0.167  0.000
       0.000  0.000  0.167
     ------------------------ ATOM   93 ------------------------
     Tr[ns( 93)] =   3.00000
     eigenvalues:
       0.500  0.500  0.500
     eigenvectors (columns):
       1.000  0.000  0.000
       0.000  1.000  0.000
       0.000  0.000  1.000
     occupation matrix ns (before diag.):
       0.500  0.000  0.000
       0.000  0.500  0.000
       0.000  0.000  0.500
     ------------------------ ATOM   94 ------------------------
     Tr[ns( 94)] =   3.00000
     eigenvalues:
       0.500  0.500  0.500
     eigenvectors (columns):
       1.000  0.000  0.000
       0.000  1.000  0.000
       0.000  0.000  1.000
     occupation matrix ns (before diag.):
       0.500  0.000  0.000
       0.000  0.500  0.000
       0.000  0.000  0.500
     ------------------------ ATOM   95 ------------------------
     Tr[ns( 95)] =   3.00000
     eigenvalues:
       0.500  0.500  0.500
     eigenvectors (columns):
       1.000  0.000  0.000
       0.000  1.000  0.000
       0.000  0.000  1.000
     occupation matrix ns (before diag.):
       0.500  0.000  0.000
       0.000  0.500  0.000
       0.000  0.000  0.500
     ------------------------ ATOM   96 ------------------------
     Tr[ns( 96)] =   3.00000
     eigenvalues:
       0.500  0.500  0.500
     eigenvectors (columns):
       1.000  0.000  0.000
       0.000  1.000  0.000
       0.000  0.000  1.000
     occupation matrix ns (before diag.):
       0.500  0.000  0.000
       0.000  0.500  0.000
       0.000  0.000  0.500
     ------------------------ ATOM   97 ------------------------
     Tr[ns( 97)] =   1.00000
     eigenvalues:
       0.167  0.167  0.167
     eigenvectors (columns):
       1.000  0.000  0.000
       0.000  1.000  0.000
       0.000  0.000  1.000
     occupation matrix ns (before diag.):
       0.167  0.000  0.000
       0.000  0.167  0.000
       0.000  0.000  0.167
     ------------------------ ATOM   98 ------------------------
     Tr[ns( 98)] =   1.00000
     eigenvalues:
       0.167  0.167  0.167
     eigenvectors (columns):
       1.000  0.000  0.000
       0.000  1.000  0.000
       0.000  0.000  1.000
     occupation matrix ns (before diag.):
       0.167  0.000  0.000
       0.000  0.167  0.000
       0.000  0.000  0.167
     ------------------------ ATOM   99 ------------------------
     Tr[ns( 99)] =   1.00000
     eigenvalues:
       0.167  0.167  0.167
     eigenvectors (columns):
       1.000  0.000  0.000
       0.000  1.000  0.000
       0.000  0.000  1.000
     occupation matrix ns (before diag.):
       0.167  0.000  0.000
       0.000  0.167  0.000
       0.000  0.000  0.167
     ------------------------ ATOM  100 ------------------------
     Tr[ns(100)] =   1.00000
     eigenvalues:
       0.167  0.167  0.167
     eigenvectors (columns):
       1.000  0.000  0.000
       0.000  1.000  0.000
       0.000  0.000  1.000
     occupation matrix ns (before diag.):
       0.167  0.000  0.000
       0.000  0.167  0.000
       0.000  0.000  0.167
     ------------------------ ATOM  101 ------------------------
     Tr[ns(101)] =   3.00000
     eigenvalues:
       0.500  0.500  0.500
     eigenvectors (columns):
       1.000  0.000  0.000
       0.000  1.000  0.000
       0.000  0.000  1.000
     occupation matrix ns (before diag.):
       0.500  0.000  0.000
       0.000  0.500  0.000
       0.000  0.000  0.500
     ------------------------ ATOM  102 ------------------------
     Tr[ns(102)] =   3.00000
     eigenvalues:
       0.500  0.500  0.500
     eigenvectors (columns):
       1.000  0.000  0.000
       0.000  1.000  0.000
       0.000  0.000  1.000
     occupation matrix ns (before diag.):
       0.500  0.000  0.000
       0.000  0.500  0.000
       0.000  0.000  0.500
     ------------------------ ATOM  103 ------------------------
     Tr[ns(103)] =   3.00000
     eigenvalues:
       0.500  0.500  0.500
     eigenvectors (columns):
       1.000  0.000  0.000
       0.000  1.000  0.000
       0.000  0.000  1.000
     occupation matrix ns (before diag.):
       0.500  0.000  0.000
       0.000  0.500  0.000
       0.000  0.000  0.500
     ------------------------ ATOM  104 ------------------------
     Tr[ns(104)] =   3.00000
     eigenvalues:
       0.500  0.500  0.500
     eigenvectors (columns):
       1.000  0.000  0.000
       0.000  1.000  0.000
       0.000  0.000  1.000
     occupation matrix ns (before diag.):
       0.500  0.000  0.000
       0.000  0.500  0.000
       0.000  0.000  0.500
     ------------------------ ATOM  105 ------------------------
     Tr[ns(105)] =   1.00000
     eigenvalues:
       0.167  0.167  0.167
     eigenvectors (columns):
       1.000  0.000  0.000
       0.000  1.000  0.000
       0.000  0.000  1.000
     occupation matrix ns (before diag.):
       0.167  0.000  0.000
       0.000  0.167  0.000
       0.000  0.000  0.167
     ------------------------ ATOM  106 ------------------------
     Tr[ns(106)] =   1.00000
     eigenvalues:
       0.167  0.167  0.167
     eigenvectors (columns):
       1.000  0.000  0.000
       0.000  1.000  0.000
       0.000  0.000  1.000
     occupation matrix ns (before diag.):
       0.167  0.000  0.000
       0.000  0.167  0.000
       0.000  0.000  0.167
     ------------------------ ATOM  107 ------------------------
     Tr[ns(107)] =   1.00000
     eigenvalues:
       0.167  0.167  0.167
     eigenvectors (columns):
       1.000  0.000  0.000
       0.000  1.000  0.000
       0.000  0.000  1.000
     occupation matrix ns (before diag.):
       0.167  0.000  0.000
       0.000  0.167  0.000
       0.000  0.000  0.167
     ------------------------ ATOM  108 ------------------------
     Tr[ns(108)] =   1.00000
     eigenvalues:
       0.167  0.167  0.167
     eigenvectors (columns):
       1.000  0.000  0.000
       0.000  1.000  0.000
       0.000  0.000  1.000
     occupation matrix ns (before diag.):
       0.167  0.000  0.000
       0.000  0.167  0.000
       0.000  0.000  0.167
     ------------------------ ATOM  109 ------------------------
     Tr[ns(109)] =   3.00000
     eigenvalues:
       0.500  0.500  0.500
     eigenvectors (columns):
       1.000  0.000  0.000
       0.000  1.000  0.000
       0.000  0.000  1.000
     occupation matrix ns (before diag.):
       0.500  0.000  0.000
       0.000  0.500  0.000
       0.000  0.000  0.500
     ------------------------ ATOM  110 ------------------------
     Tr[ns(110)] =   3.00000
     eigenvalues:
       0.500  0.500  0.500
     eigenvectors (columns):
       1.000  0.000  0.000
       0.000  1.000  0.000
       0.000  0.000  1.000
     occupation matrix ns (before diag.):
       0.500  0.000  0.000
       0.000  0.500  0.000
       0.000  0.000  0.500
     ------------------------ ATOM  111 ------------------------
     Tr[ns(111)] =   3.00000
     eigenvalues:
       0.500  0.500  0.500
     eigenvectors (columns):
       1.000  0.000  0.000
       0.000  1.000  0.000
       0.000  0.000  1.000
     occupation matrix ns (before diag.):
       0.500  0.000  0.000
       0.000  0.500  0.000
       0.000  0.000  0.500
     ------------------------ ATOM  112 ------------------------
     Tr[ns(112)] =   3.00000
     eigenvalues:
       0.500  0.500  0.500
     eigenvectors (columns):
       1.000  0.000  0.000
       0.000  1.000  0.000
       0.000  0.000  1.000
     occupation matrix ns (before diag.):
       0.500  0.000  0.000
       0.000  0.500  0.000
       0.000  0.000  0.500
     ------------------------ ATOM  113 ------------------------
     Tr[ns(113)] =   1.00000
     eigenvalues:
       0.167  0.167  0.167
     eigenvectors (columns):
       1.000  0.000  0.000
       0.000  1.000  0.000
       0.000  0.000  1.000
     occupation matrix ns (before diag.):
       0.167  0.000  0.000
       0.000  0.167  0.000
       0.000  0.000  0.167
     ------------------------ ATOM  114 ------------------------
     Tr[ns(114)] =   1.00000
     eigenvalues:
       0.167  0.167  0.167
     eigenvectors (columns):
       1.000  0.000  0.000
       0.000  1.000  0.000
       0.000  0.000  1.000
     occupation matrix ns (before diag.):
       0.167  0.000  0.000
       0.000  0.167  0.000
       0.000  0.000  0.167
     ------------------------ ATOM  115 ------------------------
     Tr[ns(115)] =   1.00000
     eigenvalues:
       0.167  0.167  0.167
     eigenvectors (columns):
       1.000  0.000  0.000
       0.000  1.000  0.000
       0.000  0.000  1.000
     occupation matrix ns (before diag.):
       0.167  0.000  0.000
       0.000  0.167  0.000
       0.000  0.000  0.167
     ------------------------ ATOM  116 ------------------------
     Tr[ns(116)] =   1.00000
     eigenvalues:
       0.167  0.167  0.167
     eigenvectors (columns):
       1.000  0.000  0.000
       0.000  1.000  0.000
       0.000  0.000  1.000
     occupation matrix ns (before diag.):
       0.167  0.000  0.000
       0.000  0.167  0.000
       0.000  0.000  0.167
     ------------------------ ATOM  117 ------------------------
     Tr[ns(117)] =   3.00000
     eigenvalues:
       0.500  0.500  0.500
     eigenvectors (columns):
       1.000  0.000  0.000
       0.000  1.000  0.000
       0.000  0.000  1.000
     occupation matrix ns (before diag.):
       0.500  0.000  0.000
       0.000  0.500  0.000
       0.000  0.000  0.500
     ------------------------ ATOM  118 ------------------------
     Tr[ns(118)] =   3.00000
     eigenvalues:
       0.500  0.500  0.500
     eigenvectors (columns):
       1.000  0.000  0.000
       0.000  1.000  0.000
       0.000  0.000  1.000
     occupation matrix ns (before diag.):
       0.500  0.000  0.000
       0.000  0.500  0.000
       0.000  0.000  0.500
     ------------------------ ATOM  119 ------------------------
     Tr[ns(119)] =   3.00000
     eigenvalues:
       0.500  0.500  0.500
     eigenvectors (columns):
       1.000  0.000  0.000
       0.000  1.000  0.000
       0.000  0.000  1.000
     occupation matrix ns (before diag.):
       0.500  0.000  0.000
       0.000  0.500  0.000
       0.000  0.000  0.500
     ------------------------ ATOM  120 ------------------------
     Tr[ns(120)] =   3.00000
     eigenvalues:
       0.500  0.500  0.500
     eigenvectors (columns):
       1.000  0.000  0.000
       0.000  1.000  0.000
       0.000  0.000  1.000
     occupation matrix ns (before diag.):
       0.500  0.000  0.000
       0.000  0.500  0.000
       0.000  0.000  0.500
     ------------------------ ATOM  121 ------------------------
     Tr[ns(121)] =   1.00000
     eigenvalues:
       0.167  0.167  0.167
     eigenvectors (columns):
       1.000  0.000  0.000
       0.000  1.000  0.000
       0.000  0.000  1.000
     occupation matrix ns (before diag.):
       0.167  0.000  0.000
       0.000  0.167  0.000
       0.000  0.000  0.167
     ------------------------ ATOM  122 ------------------------
     Tr[ns(122)] =   1.00000
     eigenvalues:
       0.167  0.167  0.167
     eigenvectors (columns):
       1.000  0.000  0.000
       0.000  1.000  0.000
       0.000  0.000  1.000
     occupation matrix ns (before diag.):
       0.167  0.000  0.000
       0.000  0.167  0.000
       0.000  0.000  0.167
     ------------------------ ATOM  123 ------------------------
     Tr[ns(123)] =   1.00000
     eigenvalues:
       0.167  0.167  0.167
     eigenvectors (columns):
       1.000  0.000  0.000
       0.000  1.000  0.000
       0.000  0.000  1.000
     occupation matrix ns (before diag.):
       0.167  0.000  0.000
       0.000  0.167  0.000
       0.000  0.000  0.167
     ------------------------ ATOM  124 ------------------------
     Tr[ns(124)] =   1.00000
     eigenvalues:
       0.167  0.167  0.167
     eigenvectors (columns):
       1.000  0.000  0.000
       0.000  1.000  0.000
       0.000  0.000  1.000
     occupation matrix ns (before diag.):
       0.167  0.000  0.000
       0.000  0.167  0.000
       0.000  0.000  0.167
     ------------------------ ATOM  125 ------------------------
     Tr[ns(125)] =   3.00000
     eigenvalues:
       0.500  0.500  0.500
     eigenvectors (columns):
       1.000  0.000  0.000
       0.000  1.000  0.000
       0.000  0.000  1.000
     occupation matrix ns (before diag.):
       0.500  0.000  0.000
       0.000  0.500  0.000
       0.000  0.000  0.500
     ------------------------ ATOM  126 ------------------------
     Tr[ns(126)] =   3.00000
     eigenvalues:
       0.500  0.500  0.500
     eigenvectors (columns):
       1.000  0.000  0.000
       0.000  1.000  0.000
       0.000  0.000  1.000
     occupation matrix ns (before diag.):
       0.500  0.000  0.000
       0.000  0.500  0.000
       0.000  0.000  0.500
     ------------------------ ATOM  127 ------------------------
     Tr[ns(127)] =   3.00000
     eigenvalues:
       0.500  0.500  0.500
     eigenvectors (columns):
       1.000  0.000  0.000
       0.000  1.000  0.000
       0.000  0.000  1.000
     occupation matrix ns (before diag.):
       0.500  0.000  0.000
       0.000  0.500  0.000
       0.000  0.000  0.500
     ------------------------ ATOM  128 ------------------------
     Tr[ns(128)] =   3.00000
     eigenvalues:
       0.500  0.500  0.500
     eigenvectors (columns):
       1.000  0.000  0.000
       0.000  1.000  0.000
       0.000  0.000  1.000
     occupation matrix ns (before diag.):
       0.500  0.000  0.000
       0.000  0.500  0.000
       0.000  0.000  0.500
     ------------------------ ATOM  129 ------------------------
     Tr[ns(129)] =   1.00000
     eigenvalues:
       0.167  0.167  0.167
     eigenvectors (columns):
       1.000  0.000  0.000
       0.000  1.000  0.000
       0.000  0.000  1.000
     occupation matrix ns (before diag.):
       0.167  0.000  0.000
       0.000  0.167  0.000
       0.000  0.000  0.167
     ------------------------ ATOM  130 ------------------------
     Tr[ns(130)] =   1.00000
     eigenvalues:
       0.167  0.167  0.167
     eigenvectors (columns):
       1.000  0.000  0.000
       0.000  1.000  0.000
       0.000  0.000  1.000
     occupation matrix ns (before diag.):
       0.167  0.000  0.000
       0.000  0.167  0.000
       0.000  0.000  0.167
     ------------------------ ATOM  131 ------------------------
     Tr[ns(131)] =   1.00000
     eigenvalues:
       0.167  0.167  0.167
     eigenvectors (columns):
       1.000  0.000  0.000
       0.000  1.000  0.000
       0.000  0.000  1.000
     occupation matrix ns (before diag.):
       0.167  0.000  0.000
       0.000  0.167  0.000
       0.000  0.000  0.167
     ------------------------ ATOM  132 ------------------------
     Tr[ns(132)] =   1.00000
     eigenvalues:
       0.167  0.167  0.167
     eigenvectors (columns):
       1.000  0.000  0.000
       0.000  1.000  0.000
       0.000  0.000  1.000
     occupation matrix ns (before diag.):
       0.167  0.000  0.000
       0.000  0.167  0.000
       0.000  0.000  0.167
     ------------------------ ATOM  133 ------------------------
     Tr[ns(133)] =   3.00000
     eigenvalues:
       0.500  0.500  0.500
     eigenvectors (columns):
       1.000  0.000  0.000
       0.000  1.000  0.000
       0.000  0.000  1.000
     occupation matrix ns (before diag.):
       0.500  0.000  0.000
       0.000  0.500  0.000
       0.000  0.000  0.500
     ------------------------ ATOM  134 ------------------------
     Tr[ns(134)] =   3.00000
     eigenvalues:
       0.500  0.500  0.500
     eigenvectors (columns):
       1.000  0.000  0.000
       0.000  1.000  0.000
       0.000  0.000  1.000
     occupation matrix ns (before diag.):
       0.500  0.000  0.000
       0.000  0.500  0.000
       0.000  0.000  0.500
     ------------------------ ATOM  135 ------------------------
     Tr[ns(135)] =   3.00000
     eigenvalues:
       0.500  0.500  0.500
     eigenvectors (columns):
       1.000  0.000  0.000
       0.000  1.000  0.000
       0.000  0.000  1.000
     occupation matrix ns (before diag.):
       0.500  0.000  0.000
       0.000  0.500  0.000
       0.000  0.000  0.500
     ------------------------ ATOM  136 ------------------------
     Tr[ns(136)] =   3.00000
     eigenvalues:
       0.500  0.500  0.500
     eigenvectors (columns):
       1.000  0.000  0.000
       0.000  1.000  0.000
       0.000  0.000  1.000
     occupation matrix ns (before diag.):
       0.500  0.000  0.000
       0.000  0.500  0.000
       0.000  0.000  0.500
     ------------------------ ATOM  137 ------------------------
     Tr[ns(137)] =   1.00000
     eigenvalues:
       0.167  0.167  0.167
     eigenvectors (columns):
       1.000  0.000  0.000
       0.000  1.000  0.000
       0.000  0.000  1.000
     occupation matrix ns (before diag.):
       0.167  0.000  0.000
       0.000  0.167  0.000
       0.000  0.000  0.167
     ------------------------ ATOM  138 ------------------------
     Tr[ns(138)] =   1.00000
     eigenvalues:
       0.167  0.167  0.167
     eigenvectors (columns):
       1.000  0.000  0.000
       0.000  1.000  0.000
       0.000  0.000  1.000
     occupation matrix ns (before diag.):
       0.167  0.000  0.000
       0.000  0.167  0.000
       0.000  0.000  0.167
     ------------------------ ATOM  139 ------------------------
     Tr[ns(139)] =   1.00000
     eigenvalues:
       0.167  0.167  0.167
     eigenvectors (columns):
       1.000  0.000  0.000
       0.000  1.000  0.000
       0.000  0.000  1.000
     occupation matrix ns (before diag.):
       0.167  0.000  0.000
       0.000  0.167  0.000
       0.000  0.000  0.167
     ------------------------ ATOM  140 ------------------------
     Tr[ns(140)] =   1.00000
     eigenvalues:
       0.167  0.167  0.167
     eigenvectors (columns):
       1.000  0.000  0.000
       0.000  1.000  0.000
       0.000  0.000  1.000
     occupation matrix ns (before diag.):
       0.167  0.000  0.000
       0.000  0.167  0.000
       0.000  0.000  0.167
     ------------------------ ATOM  141 ------------------------
     Tr[ns(141)] =   3.00000
     eigenvalues:
       0.500  0.500  0.500
     eigenvectors (columns):
       1.000  0.000  0.000
       0.000  1.000  0.000
       0.000  0.000  1.000
     occupation matrix ns (before diag.):
       0.500  0.000  0.000
       0.000  0.500  0.000
       0.000  0.000  0.500
     ------------------------ ATOM  142 ------------------------
     Tr[ns(142)] =   3.00000
     eigenvalues:
       0.500  0.500  0.500
     eigenvectors (columns):
       1.000  0.000  0.000
       0.000  1.000  0.000
       0.000  0.000  1.000
     occupation matrix ns (before diag.):
       0.500  0.000  0.000
       0.000  0.500  0.000
       0.000  0.000  0.500
     ------------------------ ATOM  143 ------------------------
     Tr[ns(143)] =   3.00000
     eigenvalues:
       0.500  0.500  0.500
     eigenvectors (columns):
       1.000  0.000  0.000
       0.000  1.000  0.000
       0.000  0.000  1.000
     occupation matrix ns (before diag.):
       0.500  0.000  0.000
       0.000  0.500  0.000
       0.000  0.000  0.500
     ------------------------ ATOM  144 ------------------------
     Tr[ns(144)] =   3.00000
     eigenvalues:
       0.500  0.500  0.500
     eigenvectors (columns):
       1.000  0.000  0.000
       0.000  1.000  0.000
       0.000  0.000  1.000
     occupation matrix ns (before diag.):
       0.500  0.000  0.000
       0.000  0.500  0.000
       0.000  0.000  0.500
     ------------------------ ATOM  145 ------------------------
     Tr[ns(145)] =   1.00000
     eigenvalues:
       0.167  0.167  0.167
     eigenvectors (columns):
       1.000  0.000  0.000
       0.000  1.000  0.000
       0.000  0.000  1.000
     occupation matrix ns (before diag.):
       0.167  0.000  0.000
       0.000  0.167  0.000
       0.000  0.000  0.167
     ------------------------ ATOM  146 ------------------------
     Tr[ns(146)] =   1.00000
     eigenvalues:
       0.167  0.167  0.167
     eigenvectors (columns):
       1.000  0.000  0.000
       0.000  1.000  0.000
       0.000  0.000  1.000
     occupation matrix ns (before diag.):
       0.167  0.000  0.000
       0.000  0.167  0.000
       0.000  0.000  0.167
     ------------------------ ATOM  147 ------------------------
     Tr[ns(147)] =   1.00000
     eigenvalues:
       0.167  0.167  0.167
     eigenvectors (columns):
       1.000  0.000  0.000
       0.000  1.000  0.000
       0.000  0.000  1.000
     occupation matrix ns (before diag.):
       0.167  0.000  0.000
       0.000  0.167  0.000
       0.000  0.000  0.167
     ------------------------ ATOM  148 ------------------------
     Tr[ns(148)] =   1.00000
     eigenvalues:
       0.167  0.167  0.167
     eigenvectors (columns):
       1.000  0.000  0.000
       0.000  1.000  0.000
       0.000  0.000  1.000
     occupation matrix ns (before diag.):
       0.167  0.000  0.000
       0.000  0.167  0.000
       0.000  0.000  0.167
     ------------------------ ATOM  149 ------------------------
     Tr[ns(149)] =   3.00000
     eigenvalues:
       0.500  0.500  0.500
     eigenvectors (columns):
       1.000  0.000  0.000
       0.000  1.000  0.000
       0.000  0.000  1.000
     occupation matrix ns (before diag.):
       0.500  0.000  0.000
       0.000  0.500  0.000
       0.000  0.000  0.500
     ------------------------ ATOM  150 ------------------------
     Tr[ns(150)] =   3.00000
     eigenvalues:
       0.500  0.500  0.500
     eigenvectors (columns):
       1.000  0.000  0.000
       0.000  1.000  0.000
       0.000  0.000  1.000
     occupation matrix ns (before diag.):
       0.500  0.000  0.000
       0.000  0.500  0.000
       0.000  0.000  0.500
     ------------------------ ATOM  151 ------------------------
     Tr[ns(151)] =   3.00000
     eigenvalues:
       0.500  0.500  0.500
     eigenvectors (columns):
       1.000  0.000  0.000
       0.000  1.000  0.000
       0.000  0.000  1.000
     occupation matrix ns (before diag.):
       0.500  0.000  0.000
       0.000  0.500  0.000
       0.000  0.000  0.500
     ------------------------ ATOM  152 ------------------------
[...]
   -20.4016 -20.4015 -20.4014 -20.4012 -20.4010 -20.4008 -20.4008 -20.4008
   -20.4005 -20.4004 -20.4003 -20.4002 -20.3998 -20.3998 -20.3995 -20.3994
   -20.3993 -20.3992 -20.3992 -20.3992 -20.3992 -20.3986 -20.3983 -20.3980
   -20.3977 -20.3975 -20.3973 -20.3970 -20.3968 -20.3966 -20.3966 -20.3963
   -20.3963 -20.3963 -20.3957 -20.3953 -20.3952 -20.3948 -20.3945 -20.3945
   -20.3942 -20.3940 -20.3938 -20.3936 -20.3936 -20.3932 -20.3931 -20.3931
   -20.3930 -20.3929 -20.3928 -20.3927 -20.3927 -20.3926 -20.3923 -20.3921
   -20.3921 -20.3917 -20.3917 -20.3916 -20.3914 -20.3911 -20.3910 -20.3909
   -20.3908 -20.3907 -20.3906 -20.3905 -20.3905 -20.3900 -20.3900 -20.3898
   -20.3895 -20.3895 -20.3893 -20.3890 -20.3888 -20.3887 -20.3883 -20.3882
   -20.3880 -20.3878 -20.3873 -20.3871 -20.3870 -20.3868 -20.3867 -20.3866
   -20.3865 -20.3861 -20.3860 -20.3859 -20.3856 -20.3854 -20.3854 -20.3848
   -20.3848 -20.3847 -20.3846 -20.3844 -20.3838 -20.3836 -20.3836 -20.3832
   -20.3832 -20.3830 -20.3825 -20.3824 -20.3824 -20.3823 -20.3820 -20.3816
   -20.3815 -20.3813 -20.3811 -20.3808 -20.3805 -20.3803 -20.3796 -20.3795
   -20.3795 -20.3794 -20.3794 -20.3791 -20.3791 -20.3791 -20.3788 -20.3786
   -20.3785 -20.3783 -20.3782 -20.3779 -20.3778 -20.3773 -20.3767 -20.3766
   -20.3765 -20.3762 -20.3759 -20.3758 -20.3757 -20.3755 -20.3755 -20.3753
   -20.3745 -20.3745 -20.3744 -20.3743 -20.3738 -20.3731 -20.3731 -20.3731
   -20.3729 -20.3728 -20.3725 -20.3724 -20.3722 -20.3721 -20.3715 -20.3713
   -20.3710 -20.3710 -20.3707 -20.3703 -20.3703 -20.3699 -20.3699 -20.3695
   -20.3690 -20.3681 -20.3679 -20.3678 -20.3678 -20.3677 -20.3661 -20.3661
   -20.3656 -20.3650 -20.3644 -20.3639 -20.3633 -20.3632 -20.3621 -20.3618
   -20.3612 -20.3611 -20.3606 -20.3603 -20.3583 -20.3582 -20.3575 -20.3573
   -20.3572 -20.3569 -20.3555 -20.3553 -20.3552 -20.3531 -20.3520 -20.3513
   -20.3495 -20.3446 -20.3411 -20.3393  -7.3576  -7.3553  -7.3512  -7.3473
    -7.3459  -7.3419  -7.3407  -7.3401  -7.3384  -7.3379  -7.3361  -7.3359
    -7.3325  -7.3317  -7.3313  -7.3309  -7.3306  -7.3293  -7.3280  -7.3274
    -7.3252  -7.3241  -7.3233  -7.3228  -7.3221  -7.3200  -7.3198  -7.3193
    -7.3184  -7.3171  -7.3166  -7.3149  -7.3138  -7.3120  -7.3103  -7.3098
    -7.3089  -7.3085  -7.3079  -7.3062  -7.3056  -7.3051  -7.3043  -7.3028
    -7.3017  -7.3010  -7.3002  -7.2994  -7.2984  -7.2982  -7.2980  -7.2959
    -7.2949  -7.2945  -7.2914  -7.2891  -7.2880  -7.2862  -7.2846  -7.2839
    -7.2820  -7.2808  -7.2784  -7.2775  -7.2761  -7.2754  -7.2750  -7.2740
    -7.2728  -7.2723  -7.2718  -7.2711  -7.2701  -7.2694  -7.2679  -7.2676
    -7.2672  -7.2668  -7.2662  -7.2652  -7.2642  -7.2640  -7.2637  -7.2633
    -7.2618  -7.2609  -7.2604  -7.2596  -7.2587  -7.2576  -7.2574  -7.2570
    -7.2562  -7.2556  -7.2549  -7.2545  -7.2541  -7.2530  -7.2525  -7.2522
    -7.2515  -7.2511  -7.2507  -7.2497  -7.2491  -7.2484  -7.2481  -7.2476
    -7.2474  -7.2473  -7.2468  -7.2459  -7.2458  -7.2450  -7.2448  -7.2445
    -7.2445  -7.2436  -7.2432  -7.2422  -7.2420  -7.2414  -7.2411  -7.2410
    -7.2404  -7.2400  -7.2394  -7.2391  -7.2385  -7.2382  -7.2378  -7.2375
    -7.2370  -7.2369  -7.2363  -7.2358  -7.2353  -7.2347  -7.2340  -7.2336
    -7.2333  -7.2327  -7.2319  -7.2316  -7.2313  -7.2309  -7.2305  -7.2300
    -7.2297  -7.2292  -7.2287  -7.2286  -7.2278  -7.2277  -7.2272  -7.2268
    -7.2265  -7.2259  -7.2257  -7.2252  -7.2245  -7.2241  -7.2240  -7.2234
    -7.2230  -7.2225  -7.2221  -7.2218  -7.2214  -7.2209  -7.2204  -7.2201
    -7.2198  -7.2194  -7.2190  -7.2188  -7.2183  -7.2176  -7.2175  -7.2174
    -7.2170  -7.2164  -7.2158  -7.2155  -7.2149  -7.2145  -7.2144  -7.2142
    -7.2140  -7.2136  -7.2133  -7.2129  -7.2128  -7.2125  -7.2119  -7.2114
    -7.2110  -7.2106  -7.2103  -7.2100  -7.2092  -7.2090  -7.2087  -7.2084
    -7.2082  -7.2075  -7.2073  -7.2072  -7.2067  -7.2064  -7.2059  -7.2057
    -7.2050  -7.2047  -7.2046  -7.2039  -7.2038  -7.2038  -7.2033  -7.2026
    -7.2020  -7.2019  -7.2015  -7.2012  -7.2010  -7.2008  -7.2003  -7.1998
    -7.1997  -7.1991  -7.1988  -7.1985  -7.1982  -7.1978  -7.1973  -7.1971
    -7.1967  -7.1958  -7.1955  -7.1952  -7.1950  -7.1947  -7.1942  -7.1938
    -7.1934  -7.1930  -7.1928  -7.1925  -7.1923  -7.1916  -7.1915  -7.1909
    -7.1906  -7.1905  -7.1899  -7.1897  -7.1893  -7.1886  -7.1884  -7.1881
    -7.1879  -7.1878  -7.1874  -7.1869  -7.1863  -7.1855  -7.1854  -7.1849
    -7.1845  -7.1844  -7.1840  -7.1834  -7.1830  -7.1826  -7.1823  -7.1820
    -7.1819  -7.1812  -7.1807  -7.1804  -7.1803  -7.1797  -7.1795  -7.1791
    -7.1786  -7.1781  -7.1779  -7.1777  -7.1773  -7.1767  -7.1765  -7.1762
    -7.1757  -7.1753  -7.1749  -7.1746  -7.1739  -7.1736  -7.1733  -7.1730
    -7.1728  -7.1726  -7.1722  -7.1718  -7.1712  -7.1707  -7.1704  -7.1700
    -7.1696  -7.1692  -7.1688  -7.1686  -7.1682  -7.1679  -7.1675  -7.1671
    -7.1667  -7.1664  -7.1658  -7.1657  -7.1650  -7.1646  -7.1640  -7.1640
    -7.1634  -7.1633  -7.1631  -7.1628  -7.1623  -7.1618  -7.1616  -7.1610
    -7.1607  -7.1600  -7.1597  -7.1594  -7.1590  -7.1589  -7.1585  -7.1583
    -7.1575  -7.1571  -7.1567  -7.1563  -7.1561  -7.1558  -7.1556  -7.1554
    -7.1549  -7.1547  -7.1542  -7.1538  -7.1537  -7.1534  -7.1530  -7.1525
    -7.1523  -7.1521  -7.1516  -7.1514  -7.1510  -7.1505  -7.1498  -7.1495
    -7.1492  -7.1491  -7.1488  -7.1484  -7.1481  -7.1478  -7.1472  -7.1465
    -7.1465  -7.1455  -7.1454  -7.1452  -7.1450  -7.1449  -7.1441  -7.1439
    -7.1435  -7.1427  -7.1424  -7.1420  -7.1417  -7.1415  -7.1413  -7.1405
    -7.1403  -7.1402  -7.1398  -7.1394  -7.1391  -7.1390  -7.1385  -7.1383
    -7.1380  -7.1373  -7.1370  -7.1368  -7.1366  -7.1360  -7.1356  -7.1353
    -7.1349  -7.1347  -7.1343  -7.1342  -7.1338  -7.1333  -7.1332  -7.1325
    -7.1319  -7.1316  -7.1312  -7.1310  -7.1309  -7.1305  -7.1302  -7.1294
    -7.1292  -7.1291  -7.1287  -7.1284  -7.1280  -7.1273  -7.1269  -7.1268
    -7.1264  -7.1263  -7.1254  -7.1254  -7.1253  -7.1247  -7.1246  -7.1246
    -7.1241  -7.1237  -7.1237  -7.1232  -7.1228  -7.1227  -7.1226  -7.1222
    -7.1218  -7.1213  -7.1211  -7.1209  -7.1205  -7.1203  -7.1197  -7.1188
    -7.1181  -7.1177  -7.1171  -7.1168  -7.1167  -7.1162  -7.1160  -7.1159
    -7.1154  -7.1151  -7.1145  -7.1143  -7.1136  -7.1132  -7.1131  -7.1127
    -7.1122  -7.1115  -7.1113  -7.1109  -7.1103  -7.1101  -7.1095  -7.1093
    -7.1091  -7.1078  -7.1070  -7.1067  -7.1063  -7.1060  -7.1056  -7.1052
    -7.1047  -7.1038  -7.1036  -7.1027  -7.1021  -7.1018  -7.1009  -7.1008
    -7.0992  -7.0986  -7.0984  -7.0982  -7.0979  -7.0971  -7.0968  -7.0963
    -7.0954  -7.0937  -7.0937  -7.0931  -7.0920  -7.0915  -7.0908  -7.0901
    -7.0883  -7.0867  -7.0865  -7.0855  -7.0852  -7.0850  -7.0838  -7.0829
    -7.0826  -7.0799  -7.0798  -7.0778  -7.0776  -7.0736  -7.0730  -7.0714
    -7.0711  -7.0710  -7.0683  -7.0680  -7.0676  -7.0672  -7.0654  -7.0621
    -7.0561  -7.0549  -7.0540  -7.0488  -7.0428  -7.0394  -7.0323  -7.0267
    -3.6004  -3.4993  -3.4721  -3.4230  -3.3634  -3.3187  -3.3107  -3.2723
    -3.2258  -3.1945  -3.1212  -3.1164  -3.0968  -3.0458  -3.0236  -3.0110
    -2.9607  -2.9303  -2.9169  -2.8990  -2.8535  -2.8361  -2.8268  -2.7796
    -2.7713  -2.7668  -2.7388  -2.7337  -2.7205  -2.6542  -2.6390  -2.6182
    -2.6005  -2.5976  -2.5596  -2.5360  -2.5207  -2.4889  -2.4783  -2.4714
    -2.4534  -2.4404  -2.4133  -2.3899  -2.3810  -2.3699  -2.3345  -2.3263
    -2.2939  -2.2701  -2.2541  -2.2403  -2.2269  -2.1528  -2.1197  -2.0964
    -1.9984  -1.9687  -1.9455  -1.8642  -1.8436  -1.8242  -1.7819  -1.7360
    -1.7204  -1.6974  -1.6675  -1.6575  -1.6364  -1.6060  -1.5716  -1.5707
    -1.5426  -1.5337  -1.4883  -1.4460  -1.4247  -1.4159  -1.3773  -1.3718
    -1.3460  -1.3264  -1.2496  -1.2466  -1.2312  -1.2148  -1.2061  -1.1733
    -1.1615  -1.1399  -1.1268  -1.1117  -1.0873  -1.0705  -1.0561  -1.0515
    -1.0274  -0.9970  -0.9794  -0.9660  -0.9489  -0.9376  -0.9304  -0.8920
    -0.8633  -0.8545  -0.7849  -0.7444   0.5047   0.5438   0.5689   0.5853
     0.7695   0.7766   0.7813   0.7867   0.7933   0.8065   0.8084   0.8133
     0.8175   0.8186   0.8341   0.8374   0.8421   0.8587   0.8627   0.8664
     0.8711   0.8730   0.8822   0.8883   0.8932   0.8991   0.9021   0.9066
     0.9106   0.9151   0.9259   0.9311   0.9351   0.9405   0.9451   0.9570
     0.9647   0.9699   0.9791   0.9862   0.9957   0.9977   1.0067   1.0119
     1.0149   1.0245   1.0350   1.0528   1.0588   1.0638   1.0706   1.0764
     1.0842   1.0979   1.1115   1.1157   1.1189   1.1265   1.1394   1.1469
     1.5984   1.6139   1.6590   1.6844   1.6959   1.7071   1.7210   1.7789
     1.8008   1.8203   1.8616   1.8653   1.8794   1.9030   1.9235   1.9393
     1.9556   1.9763   1.9870   2.0153   2.0267   2.0301   2.0408   2.0468
     2.0640   2.1130   2.1299   2.1424   2.8112   2.8941   2.8970   2.9319
     2.9677   2.9963   3.0332   3.0554   3.4052   3.4306   3.4396   3.4493
     3.4627   3.4714   3.4787   3.4914   3.5083   3.5173   3.5328   3.5393
     3.5439   3.5828   3.6151   3.6347   3.6711   3.6779   3.6887   3.6992
     3.7032   3.7102   3.7190   3.7242   3.7326   3.7477   3.7616   3.7659
     3.7688   3.7848   3.7989   3.8089   3.8323   3.8464   3.8676   3.8784
     3.9059   3.9144   3.9223   3.9462   3.9564   3.9573   3.9705   3.9852
     3.9923   4.0024   4.0132   4.0189   4.0216   4.0451   4.0554   4.0568
     4.0686   4.0750   4.0958   4.1036   4.3036   4.3295   4.3629   4.3750
     4.3900   4.4017   4.4250   4.4265   4.4363   4.4655   4.4733   4.4869
     4.5001   4.5089   4.5187   4.5393   4.5431   4.5492   4.5590   4.5665
     4.5799   4.5927   4.5951   4.6150   4.6178   4.6252   4.6291   4.6443
     4.6556   4.6590   4.6722   4.6760   4.6815   4.7015   4.7209   4.7299
     4.7552   4.7736   4.7907   4.8098   4.8171   4.8231   4.8401   4.8453
     4.8635   4.8706   4.8905   4.8992   4.9056   4.9191   4.9342   4.9430
     4.9482   4.9603   4.9713   4.9776   4.9849   4.9952   5.0008   5.0135
     5.0264   5.0334   5.0536   5.0612   5.0635   5.0775   5.0911   5.0999
     5.1118   5.1158   5.1284   5.1370   5.1504   5.1683   5.1725   5.1883
     5.1957   5.2044   5.2085   5.2215   5.2285   5.2314   5.2451   5.2644
     5.2704   5.2886   5.2893   5.2987   5.3026   5.3324   5.3488   5.3570
     5.3717   5.3772   5.3953   5.4128   5.4215   5.4403   5.4411   5.4537
     5.4648   5.4753   5.4807   5.4985   5.5134   5.5242   5.5258   5.5465
     5.5712   5.5836   5.5962   5.6270   5.6808   5.6898   5.7199   5.7310
     5.7503   5.7610   5.7810   5.7909   5.8068   5.8188   5.8443   5.8757
     5.8844   5.8986   5.9091   5.9184   5.9220   5.9294   5.9515   5.9677
     5.9743   5.9865   5.9945   6.0033   6.0131   6.0284   6.0426   6.0583
     6.0742   6.0784   6.0815   6.1001   6.1021   6.1165   6.1358   6.1528
     6.1622   6.1832   6.2124   6.2220   6.2565   6.2955   6.3111   6.3178
     6.3278   6.3469   6.3537   6.3609   6.3899   6.4254   6.4471   6.4505
     6.4771   6.5096   6.5737   6.5874   6.8956   6.9076   6.9751   7.0333
     8.4595   8.4905   8.5243   8.5650   8.5924   8.6096   8.6422   8.6627
     8.7165   8.7415   8.7537   8.8065   8.8746   8.8985   8.9549   8.9702
     9.0028   9.0405   9.0847   9.1154   9.1869   9.2020   9.2268   9.2353
     9.2671   9.2702   9.2812   9.2885   9.3164   9.3201   9.3309   9.3385
     9.3517   9.3599   9.3686   9.3904   9.4016   9.4093   9.4142   9.4231
     9.4272   9.4374   9.4452   9.4628   9.4657   9.4714   9.4893   9.5018
     9.5085   9.5203   9.5349   9.5461   9.5549   9.5729   9.5847   9.5960
     9.6153   9.6205   9.6447   9.6578   9.6709   9.6728   9.6781   9.6955
     9.7065   9.7127   9.7162   9.7272   9.7336   9.7365   9.7445   9.7548
     9.7640   9.7706   9.7762   9.7826   9.7851   9.7974   9.8040   9.8074
     9.8151   9.8263   9.8314   9.8430   9.8472   9.8586   9.8675   9.8740
     9.8777   9.8887   9.8918   9.9011   9.9094   9.9233   9.9370   9.9438
     9.9541   9.9568   9.9719   9.9807   9.9928  10.0049  10.0078  10.0220
    10.0280  10.0459  10.0578  10.0756  10.2943  10.3280  10.3324  10.3536
    10.3847  10.3991  10.4005  10.4140  10.4351  10.4566  10.4704  10.4956
    10.5468  10.5831  10.5905  10.6067  10.6235  10.6514  10.6811  10.6953
    10.7098  10.7297  10.7424  10.7555  10.7780  10.8002  10.8176  10.8408
    10.9485  10.9662  10.9816  10.9941  11.0215  11.0344  11.0451  11.0585
    11.0716  11.0866  11.0894  11.1276  11.1789  11.1931  11.2039  11.2183
    11.2605  11.2720  11.2830  11.2886  11.2950  11.3051  11.3111  11.3262
    11.3379  11.3448  11.3461  11.3546  11.3603  11.3766  11.3855  11.3872
    11.3978  11.4142  11.4268  11.4404  11.4424  11.4564  11.4583  11.4676
    11.4704  11.4760  11.4963  11.5028  11.5123  11.5166  11.5271  11.5354
    11.5436  11.5449  11.5571  11.5686  11.5825  11.5838  11.5975  11.6017
    11.6097  11.6227  11.6323  11.6465  11.6492  11.6516  11.6625  11.6709
    11.6897  11.6926  11.6989  11.7139  11.7207  11.7380  11.7415  11.7546
    11.7605  11.7674  11.7813  11.8193  11.8829  11.9120  11.9209  11.9272
    11.9377  11.9412  11.9483  11.9625  11.9663  11.9780  11.9854  11.9885
    11.9989  12.0068  12.0195  12.0377  12.0415  12.0649  12.0691  12.0934
    12.1070  12.1211  12.1370  12.1466  12.1524  12.1705  12.1766  12.1799
    12.1950  12.2023  12.2076  12.2217  12.2391  12.2649  12.2698  12.2835
    12.2913  12.2977  12.3190  12.3227  12.3454  12.3596  12.3680  12.3800
    12.3963  12.4019  12.4291  12.4300  12.4370  12.4436  12.4498  12.4572
    12.4671  12.4785  12.4795  12.5038  12.5133  12.5247  12.5292  12.5344
    12.5515  12.5548  12.5723  12.5768  12.5883  12.6095  12.6224  12.6232
    12.6485  12.6539  12.6678  12.6756  12.6858  12.7077  12.7217  12.7324
    12.7524  12.7637  12.7685  12.7757  12.7904  12.7993  12.8140  12.8192
    12.8380  12.8389  12.8569  12.8628  12.8733  12.8800  12.8844  12.8944
    12.9042  12.9189  12.9190  12.9263  12.9290  12.9464  12.9509  12.9542
    12.9605  12.9646  12.9729  12.9766  12.9927  12.9983  13.0097  13.0146
    13.0229  13.0261  13.0279  13.0479  13.0521  13.0583  13.0656  13.0722
    13.0915  13.0938  13.1056  13.1225  13.1248  13.1291  13.1392  13.1490
    13.1596  13.1666  13.1705  13.1834  13.2028  13.2069  13.2304  13.2386
    13.2464  13.2707  13.2893  13.3021  13.3225  13.3394  13.3634  13.4082
    13.6909  13.7011  13.7116  13.7193  13.7357  13.7441  13.7482  13.7871
    13.7902  13.7937  13.8137  13.8233  13.8460  13.8745  13.8766  13.9062
    13.9169  13.9220  13.9326  13.9374  13.9467  13.9706  13.9754  13.9815
    13.9832  13.9933  14.0221  14.0453  14.0524  14.0584  14.0748  14.1002
    14.1466  14.1719  14.1786  14.2044  14.2313  14.2379  14.2615  14.2701
    14.2717  14.2936  14.3083  14.3172  14.3233  14.3510  14.3557  14.3730
    14.4142  14.4167  14.4303  14.4376  14.4427  14.4567  14.4704  14.4826
    14.4983  14.5038  14.5125  14.5257  14.5441  14.5525  14.5688  14.5958
    14.6242  14.6477  14.6705  14.6853  14.6954  14.7029  14.7165  14.7310
    14.7584  14.7712  14.7871  14.7955  14.8000  14.8079  14.8285  14.8574
    14.8971  14.9017  14.9284  14.9482  14.9627  14.9877  15.0301  15.0765
    15.0840  15.1028  15.1057  15.1186  15.1297  15.1478  15.1597  15.1664
    15.1822  15.1976  15.2138  15.2181  15.2383  15.2479  15.2493  15.2625
    15.2663  15.2776  15.2838  15.2849  15.2977  15.3115  15.3279  15.3326
    15.3368  15.3398  15.3503  15.3551  15.3673  15.3734  15.3757  15.3858
    15.3907  15.4005  15.4055  15.4110  15.4236  15.4341  15.4374  15.4429
    15.4531  15.4560  15.4668  15.4733  15.4903  15.4923  15.5024  15.5185
    15.5303  15.5375  15.5502  15.5627  15.5734  15.5843  15.6038  15.6159
    15.6237  15.6278  15.6519  15.6585  15.6660  15.6731  15.6768  15.6891
    15.6923  15.7024  15.7143  15.7337  15.7402  15.7480  15.7592  15.7684
    15.7817  15.7886  15.7996  15.8184  15.8206  15.8352  15.8413  15.8442
    15.8538  15.8633  15.8714  15.8723  15.8829  15.8864  15.8990  15.9069
    15.9166  15.9180  15.9386  15.9485  15.9560  15.9735  15.9870  15.9919
    16.0080  16.0165  16.0446  16.0628  16.0784  16.1189  16.1202  16.1282
    16.1402  16.1493  16.1623  16.1656  16.1702  16.1749  16.1826  16.1890
    16.1945  16.2019  16.2043  16.2130  16.2367  16.2409  16.2508  16.2586
    16.2674  16.2745  16.2851  16.2914  16.2932  16.3062  16.3137  16.3211
    16.3276  16.3363  16.3617  16.3652  16.3778  16.3968  16.4177  16.4527
    16.4822  16.4911  16.5174  16.5349  16.5549  16.5778  16.6098  16.6282
    16.6432  16.6524  16.6555  16.6676  16.6758  16.6807  16.6833  16.7046
    16.7082  16.7152  16.7198  16.7260  16.7321  16.7444  16.7459  16.7559
    16.7655  16.7714  16.7790  16.7951  16.7996  16.8036  16.8190  16.8282
    16.9858  16.9970  17.0362  17.0543  17.1025  17.1077  17.1240  17.1369
    17.1761  17.1801  17.2073  17.2227  17.2377  17.2454  17.2601  17.2747
    17.2904  17.2952  17.3128  17.3297  17.3455  17.3541  17.3639  17.3693
    17.3784  17.3833  17.3961  17.4066  17.4099  17.4198  17.4274  17.4387
    17.4420  17.4478  17.4552  17.4628  17.4735  17.4813  17.4877  17.4986

     highest occupied, lowest unoccupied level (ev):     7.0789    7.2526

!    total energy              =  -35631.66140583 Ry
     estimated scf accuracy    <       0.00000630 Ry

     The total energy is the sum of the following terms:
     one-electron contribution =  -17761.24634513 Ry
     hartree contribution      =   10621.77700508 Ry
     xc contribution           =   -9354.71387542 Ry
     ewald contribution        =  -19139.70104082 Ry
     Hubbard energy            =       2.22285046 Ry

     convergence has been achieved in  12 iterations

     Writing all to output data dir ./tmp_In1.0Ga0.0As0.5Sb0.5_cube_3x3x3.1/In1.0Ga0.0As0.5Sb0.5_cube_3x3x3.1.save/ :
     XML data file, charge density, pseudopotentials, collected wavefunctions

     init_run     :    339.35s CPU    343.06s WALL (       1 calls)
     electrons    :  11333.75s CPU  11359.51s WALL (       1 calls)

     Called by init_run:
     wfcinit      :    328.42s CPU    331.70s WALL (       1 calls)
     potinit      :      2.30s CPU      2.39s WALL (       1 calls)
     hinit0       :      0.64s CPU      0.70s WALL (       1 calls)

     Called by electrons:
     c_bands      :  10757.62s CPU  10781.66s WALL (      13 calls)
     sum_band     :    569.25s CPU    569.93s WALL (      13 calls)
     v_of_rho     :      4.69s CPU      4.98s WALL (      13 calls)
     mix_rho      :      1.04s CPU      1.06s WALL (      13 calls)

     Called by c_bands:
     init_us_2    :     40.21s CPU     40.84s WALL (      28 calls)
     cegterg      :   9676.67s CPU   9699.12s WALL (      13 calls)

     Called by *egterg:
     cdiaghg      :    862.78s CPU    863.78s WALL (     112 calls)
     h_psi        :   6012.94s CPU   6024.96s WALL (     114 calls)
     g_psi        :      4.93s CPU      4.94s WALL (     100 calls)

     Called by h_psi:
     h_psi:calbec :    964.91s CPU    964.97s WALL (     114 calls)
     vloc_psi     :   1119.96s CPU   1122.37s WALL (     114 calls)
     add_vuspsi   :    932.29s CPU    935.13s WALL (     114 calls)
     vhpsi        :   2986.15s CPU   2986.34s WALL (     114 calls)

     General routines
     calbec       :   1220.76s CPU   1220.85s WALL (     242 calls)
     fft          :      2.82s CPU      3.12s WALL (     131 calls)
     ffts         :      0.27s CPU      0.27s WALL (      13 calls)
     fftw         :   1200.45s CPU   1202.94s WALL (  163722 calls)

     Parallel routines

     Hubbard U routines
     new_ns       :     65.50s CPU     65.51s WALL (      13 calls)
     vhpsi        :   2986.15s CPU   2986.34s WALL (     114 calls)

     PWSCF        :      3h15m CPU      3h18m WALL


   This run was terminated on:  21:59:15  27Jan2026            

=------------------------------------------------------------------------------=
   JOB DONE.
=------------------------------------------------------------------------------=
