
     Program PWSCF v.7.3.1 starts on 13Jun2025 at 18: 5:21 

     This program is part of the open-source Quantum ESPRESSO suite
     for quantum simulation of materials; please cite
         "P. Giannozzi et al., J. Phys.:Condens. Matter 21 395502 (2009);
         "P. Giannozzi et al., J. Phys.:Condens. Matter 29 465901 (2017);
         "P. Giannozzi et al., J. Chem. Phys. 152 154105 (2020);
          URL http://www.quantum-espresso.org", 
     in publications or presentations arising from this work. More details at
     http://www.quantum-espresso.org/quote

     Parallel version (MPI), running on   640 processors

     MPI processes distributed on     5 nodes
     434148 MiB available memory on the printing compute node when the environment starts

     Reading input from In0.0Ga1.0As0.75Sb0.25_cube_3x3x3.3.scf.in
Warning: card &CELL ignored
Warning: card   CELL_DOFREE = 'ALL', ignored
Warning: card / ignored

     Current dimensions of program PWSCF are:
     Max number of different atomic species (ntypx) = 10
     Max number of k-points (npk) =  40000
     Max angular momentum in pseudopotentials (lmaxx) =  4

     K-points division:     npool     =       8
     R & G space division:  proc/nbgrp/npool/nimage =      80
     Subspace diagonalization in iterative solution of the eigenvalue problem:
     one sub-group per band group will be used
     custom distributed-memory algorithm (size of sub-group:  8*  8 procs)


     Parallelization info
     --------------------
     sticks:   dense  smooth     PW     G-vecs:    dense   smooth      PW
     Min         515     515    132                78669    78669   10284
     Max         516     516    133                78675    78675   10289
     Sum       41201   41201  10605              6293725  6293725  822961

     Using Slab Decomposition



     bravais-lattice index     =            1
     lattice parameter (alat)  =      32.8480  a.u.
     unit-cell volume          =   35442.7733 (a.u.)^3
     number of atoms/cell      =          216
     number of atomic types    =            4
     number of electrons       =      3024.00
     number of Kohn-Sham states=         2160
     kinetic-energy cutoff     =     120.0000  Ry
     charge density cutoff     =     480.0000  Ry
     scf convergence threshold =      1.0E-05
     mixing beta               =       0.6500
     number of iterations used =            8  plain     mixing
     Exchange-correlation= PBE
                           (   1   4   3   4   0   0   0)
     Hubbard projectors: atomic
     Hubbard parameters of DFT+U (Dudarev formulation) in eV:
     U(As-4p) =  5.8400
     U(Ga-4p) = -3.2650
     U(In-5p) = -0.9725
     U(Sb-5p) =  4.8900

     Internal variables: lda_plus_u =T, lda_plus_u_kind = 0

     celldm(1)=  32.848023  celldm(2)=   0.000000  celldm(3)=   0.000000
     celldm(4)=   0.000000  celldm(5)=   0.000000  celldm(6)=   0.000000

     crystal axes: (cart. coord. in units of alat)
               a(1) = (   1.000000   0.000000   0.000000 )  
               a(2) = (   0.000000   1.000000   0.000000 )  
               a(3) = (   0.000000   0.000000   1.000000 )  

     reciprocal axes: (cart. coord. in units 2 pi/alat)
               b(1) = (  1.000000  0.000000  0.000000 )  
               b(2) = (  0.000000  1.000000  0.000000 )  
               b(3) = (  0.000000  0.000000  1.000000 )  


     PseudoPot. # 1 for As read from file:
     /work/i254/i254/gentles/data/pseudos/As.pbe.NC-SR.standard.v0.5.UPF
     MD5 check sum: bfe1a874457ce592347346129958e7cf
     Pseudo is Norm-conserving + core correction, Zval = 15.0
     Generated using ONCVPSP code by D. R. Hamann
     Using radial grid of 1358 points,  6 beta functions with: 
                l(1) =   0
                l(2) =   0
                l(3) =   1
                l(4) =   1
                l(5) =   2
                l(6) =   2

     PseudoPot. # 2 for Ga read from file:
     /work/i254/i254/gentles/data/pseudos/Ga.pbe.NC-SR.standard.v0.5.UPF
     MD5 check sum: 2bb81bf6f0a8d9832cf3329850435ecf
     Pseudo is Norm-conserving + core correction, Zval = 13.0
     Generated using ONCVPSP code by D. R. Hamann
     Using radial grid of 1902 points,  6 beta functions with: 
                l(1) =   0
                l(2) =   0
                l(3) =   1
                l(4) =   1
                l(5) =   2
                l(6) =   2

     PseudoPot. # 3 for In read from file:
     /work/i254/i254/gentles/data/pseudos/In.pbe.NC-SR.standard.v0.5.UPF
     MD5 check sum: 835f4bf908c982ff75c88e16816a8d7f
     Pseudo is Norm-conserving + core correction, Zval = 13.0
     Generated using ONCVPSP code by D. R. Hamann
     Using radial grid of 1964 points,  6 beta functions with: 
                l(1) =   0
                l(2) =   0
                l(3) =   1
                l(4) =   1
                l(5) =   2
                l(6) =   2

     PseudoPot. # 4 for Sb read from file:
     /work/i254/i254/gentles/data/pseudos/Sb.pbe.NC-SR.standard.v0.5.UPF
     MD5 check sum: 127f69b6101c45666faeae1b5d611565
     Pseudo is Norm-conserving + core correction, Zval = 15.0
     Generated using ONCVPSP code by D. R. Hamann
     Using radial grid of 1434 points,  6 beta functions with: 
                l(1) =   0
                l(2) =   0
                l(3) =   1
                l(4) =   1
                l(5) =   2
                l(6) =   2

     atomic species   valence    mass     pseudopotential
     As               15.00    74.92160     As( 1.00)
     Ga               13.00    69.72300     Ga( 1.00)
     In               13.00   114.81800     In( 1.00)
     Sb               15.00   121.76000     Sb( 1.00)

     No symmetry found



   Cartesian axes

     site n.     atom                  positions (alat units)
         1        Ga     tau(   1) = (   0.0002620  -0.0008000  -0.0001610  )
         2        Ga     tau(   2) = (  -0.0004920   0.1641400   0.1675900  )
         3        Ga     tau(   3) = (   0.1640740   0.0000170   0.1656150  )
         4        Ga     tau(   4) = (   0.1580890   0.1667040   0.0026910  )
         5        As     tau(   5) = (   0.0801600   0.0816250   0.0844120  )
         6        As     tau(   6) = (   0.0812340   0.2487700   0.2485180  )
         7        As     tau(   7) = (   0.2462490   0.0826570   0.2480520  )
         8        As     tau(   8) = (   0.2441120   0.2444980   0.0819170  )
         9        Ga     tau(   9) = (  -0.0015170  -0.0057130   0.3301000  )
        10        Ga     tau(  10) = (  -0.0020290   0.1684490   0.5050600  )
        11        Ga     tau(  11) = (   0.1695720  -0.0050080   0.5060770  )
        12        Ga     tau(  12) = (   0.1693920   0.1713510   0.3285090  )
        13        Sb     tau(  13) = (   0.0847750   0.0821270   0.4171250  )
        14        As     tau(  14) = (   0.0834070   0.2493770   0.5846400  )
        15        As     tau(  15) = (   0.2502940   0.0816850   0.5852120  )
        16        As     tau(  16) = (   0.2485910   0.2497160   0.4195200  )
        17        Ga     tau(  17) = (  -0.0003830   0.0027720   0.6666420  )
        18        Ga     tau(  18) = (   0.0011130   0.1639730   0.8323570  )
        19        Ga     tau(  19) = (   0.1617480  -0.0040480   0.8297930  )
        20        Ga     tau(  20) = (   0.1664840   0.1648480   0.6660520  )
        21        As     tau(  21) = (   0.0832230   0.0831650   0.7485600  )
        22        As     tau(  22) = (   0.0798320   0.2475230   0.9166950  )
        23        Sb     tau(  23) = (   0.2482350   0.0818530   0.9171030  )
        24        As     tau(  24) = (   0.2491160   0.2476670   0.7476800  )
        25        Ga     tau(  25) = (   0.0014310   0.3349580  -0.0019920  )
        26        Ga     tau(  26) = (   0.0046230   0.4954590   0.1690570  )
        27        Ga     tau(  27) = (   0.1616980   0.3277500   0.1613890  )
        28        Ga     tau(  28) = (   0.1610850   0.5049960   0.0024440  )
        29        As     tau(  29) = (   0.0832570   0.4159270   0.0817360  )
        30        As     tau(  30) = (   0.0806490   0.5845010   0.2486160  )
        31        Sb     tau(  31) = (   0.2450070   0.4148570   0.2512840  )
        32        As     tau(  32) = (   0.2450900   0.5884370   0.0811540  )
        33        Ga     tau(  33) = (   0.0004570   0.3300480   0.3348070  )
        34        Ga     tau(  34) = (   0.0003190   0.4989780   0.5014950  )
        35        Ga     tau(  35) = (   0.1648750   0.3330080   0.5011260  )
        36        Ga     tau(  36) = (   0.1555110   0.5004560   0.3348690  )
        37        As     tau(  37) = (   0.0799720   0.4146240   0.4188540  )
        38        As     tau(  38) = (   0.0796460   0.5818360   0.5868880  )
        39        As     tau(  39) = (   0.2487410   0.4163620   0.5833790  )
        40        Sb     tau(  40) = (   0.2492220   0.5832520   0.4189100  )
        41        Ga     tau(  41) = (  -0.0031940   0.3300380   0.6640510  )
        42        Ga     tau(  42) = (  -0.0027200   0.5041290   0.8369290  )
        43        Ga     tau(  43) = (   0.1652120   0.3228490   0.8329810  )
        44        Ga     tau(  44) = (   0.1700260   0.5038260   0.6637520  )
        45        Sb     tau(  45) = (   0.0829560   0.4163180   0.7502330  )
        46        As     tau(  46) = (   0.0833000   0.5870790   0.9154100  )
        47        Sb     tau(  47) = (   0.2484130   0.4162570   0.9160860  )
        48        As     tau(  48) = (   0.2497390   0.5855890   0.7489230  )
        49        Ga     tau(  49) = (   0.0053330   0.6733970  -0.0041030  )
        50        Ga     tau(  50) = (   0.0022030   0.8334850   0.1654870  )
        51        Ga     tau(  51) = (   0.1644630   0.6686620   0.1671690  )
        52        Ga     tau(  52) = (   0.1660310   0.8351160  -0.0017850  )
        53        As     tau(  53) = (   0.0852250   0.7524930   0.0828990  )
        54        As     tau(  54) = (   0.0833370   0.9167220   0.2469590  )
        55        As     tau(  55) = (   0.2470850   0.7531060   0.2476130  )
        56        As     tau(  56) = (   0.2472070   0.9168710   0.0823860  )
        57        Ga     tau(  57) = (  -0.0052320   0.6654010   0.3282550  )
        58        Ga     tau(  58) = (  -0.0034900   0.8381710   0.5040800  )
        59        Ga     tau(  59) = (   0.1595280   0.6635620   0.5064560  )
        60        Ga     tau(  60) = (   0.1695360   0.8395610   0.3285080  )
        61        Sb     tau(  61) = (   0.0814980   0.7528480   0.4145070  )
        62        As     tau(  62) = (   0.0812110   0.9181170   0.5870310  )
        63        Sb     tau(  63) = (   0.2504020   0.7520520   0.5856710  )
        64        As     tau(  64) = (   0.2489570   0.9180430   0.4170740  )
        65        Ga     tau(  65) = (   0.0005840   0.6683110   0.6685120  )
        66        Ga     tau(  66) = (  -0.0012220   0.8337070   0.8332520  )
        67        Ga     tau(  67) = (   0.1667680   0.6677510   0.8321190  )
        68        Ga     tau(  68) = (   0.1613230   0.8368800   0.6720240  )
        69        As     tau(  69) = (   0.0819250   0.7506390   0.7520740  )
        70        As     tau(  70) = (   0.0811140   0.9155950   0.9159110  )
        71        As     tau(  71) = (   0.2483990   0.7517850   0.9151000  )
        72        As     tau(  72) = (   0.2479820   0.9165190   0.7501270  )
        73        Ga     tau(  73) = (   0.3364630  -0.0057290   0.0033160  )
        74        Ga     tau(  74) = (   0.3261390   0.1603090   0.1610410  )
        75        Ga     tau(  75) = (   0.4990180   0.0070350   0.1663800  )
        76        Ga     tau(  76) = (   0.4998000   0.1653950  -0.0031130  )
        77        As     tau(  77) = (   0.4162200   0.0839380   0.0807110  )
        78        Sb     tau(  78) = (   0.4139190   0.2448620   0.2505440  )
        79        As     tau(  79) = (   0.5840430   0.0797110   0.2528910  )
        80        As     tau(  80) = (   0.5833900   0.2458010   0.0802000  )
        81        Ga     tau(  81) = (   0.3257930   0.0048650   0.3373100  )
        82        Ga     tau(  82) = (   0.3309600   0.1661050   0.5019300  )
        83        Ga     tau(  83) = (   0.4965940  -0.0059910   0.4970410  )
        84        Ga     tau(  84) = (   0.4984610   0.1547020   0.3366990  )
        85        As     tau(  85) = (   0.4122070   0.0803250   0.4202800  )
        86        As     tau(  86) = (   0.4106510   0.2508340   0.5853460  )
        87        Sb     tau(  87) = (   0.5850450   0.0809760   0.5820600  )
        88        Sb     tau(  88) = (   0.5823200   0.2473360   0.4209410  )
        89        Ga     tau(  89) = (   0.3313560  -0.0015950   0.6673540  )
        90        Ga     tau(  90) = (   0.3341130   0.1678990   0.8280100  )
        91        Ga     tau(  91) = (   0.4942400   0.0042980   0.8355320  )
        92        Ga     tau(  92) = (   0.4906140   0.1642070   0.6652270  )
        93        As     tau(  93) = (   0.4123970   0.0814830   0.7490520  )
        94        As     tau(  94) = (   0.4153300   0.2463510   0.9142670  )
        95        As     tau(  95) = (   0.5824990   0.0830790   0.9149300  )
        96        Sb     tau(  96) = (   0.5823230   0.2485450   0.7488650  )
        97        Ga     tau(  97) = (   0.3298070   0.3213280  -0.0009920  )
        98        Ga     tau(  98) = (   0.3253480   0.5059710   0.1629330  )
        99        Ga     tau(  99) = (   0.5030000   0.3283720   0.1619480  )
       100        Ga     tau( 100) = (   0.4932340   0.5077310  -0.0069670  )
       101        Sb     tau( 101) = (   0.4127580   0.4158840   0.0803780  )
       102        Sb     tau( 102) = (   0.4153290   0.5886920   0.2517290  )
       103        Sb     tau( 103) = (   0.5832920   0.4183660   0.2500280  )
       104        Sb     tau( 104) = (   0.5853520   0.5882570   0.0804890  )
       105        Ga     tau( 105) = (   0.3337690   0.3339470   0.3438990  )
       106        Ga     tau( 106) = (   0.3368710   0.4972930   0.5067200  )
       107        Ga     tau( 107) = (   0.4958860   0.3355820   0.5076820  )
       108        Ga     tau( 108) = (   0.4987020   0.5018770   0.3435250  )
       109        As     tau( 109) = (   0.4173280   0.4168340   0.4234160  )
       110        As     tau( 110) = (   0.4187000   0.5824320   0.5872130  )
       111        As     tau( 111) = (   0.5822350   0.4191080   0.5842400  )
       112        As     tau( 112) = (   0.5809780   0.5866180   0.4221160  )
       113        Ga     tau( 113) = (   0.3286090   0.3339800   0.6671400  )
       114        Ga     tau( 114) = (   0.3343670   0.5043360   0.8279080  )
       115        Ga     tau( 115) = (   0.4913080   0.3347800   0.8328900  )
       116        Ga     tau( 116) = (   0.5005990   0.4990320   0.6689190  )
       117        As     tau( 117) = (   0.4132860   0.4176640   0.7475780  )
       118        As     tau( 118) = (   0.4132890   0.5892770   0.9107360  )
       119        Sb     tau( 119) = (   0.5852010   0.4177520   0.9163150  )
       120        As     tau( 120) = (   0.5809370   0.5861360   0.7480480  )
       121        Ga     tau( 121) = (   0.3300290   0.6679580  -0.0029530  )
       122        Ga     tau( 122) = (   0.3273290   0.8303200   0.1605760  )
       123        Ga     tau( 123) = (   0.5016780   0.6780300   0.1670630  )
       124        Ga     tau( 124) = (   0.4943720   0.8282210  -0.0050800  )
       125        As     tau( 125) = (   0.4126210   0.7495850   0.0800260  )
       126        Sb     tau( 126) = (   0.4135090   0.9165710   0.2512380  )
       127        As     tau( 127) = (   0.5867420   0.7526480   0.2528320  )
       128        Sb     tau( 128) = (   0.5827840   0.9147600   0.0817250  )
       129        Ga     tau( 129) = (   0.3306500   0.6793180   0.3349670  )
       130        Ga     tau( 130) = (   0.3360350   0.8381670   0.4955950  )
       131        Ga     tau( 131) = (   0.4969550   0.6676750   0.5020420  )
       132        Ga     tau( 132) = (   0.5058570   0.8317950   0.3372450  )
       133        As     tau( 133) = (   0.4187140   0.7532920   0.4182090  )
       134        As     tau( 134) = (   0.4145350   0.9163760   0.5830510  )
       135        As     tau( 135) = (   0.5816580   0.7504250   0.5809490  )
       136        As     tau( 136) = (   0.5861160   0.9158270   0.4176460  )
       137        Ga     tau( 137) = (   0.3377920   0.6642960   0.6715980  )
       138        Ga     tau( 138) = (   0.3311780   0.8341170   0.8320130  )
       139        Ga     tau( 139) = (   0.5008640   0.6701610   0.8314610  )
       140        Ga     tau( 140) = (   0.4953790   0.8296530   0.6621620  )
       141        As     tau( 141) = (   0.4165280   0.7512740   0.7509600  )
       142        As     tau( 142) = (   0.4146910   0.9151640   0.9151190  )
       143        As     tau( 143) = (   0.5832400   0.7491590   0.9169410  )
       144        Sb     tau( 144) = (   0.5818450   0.9164810   0.7507550  )
       145        Ga     tau( 145) = (   0.6680970  -0.0017730  -0.0099140  )
       146        Ga     tau( 146) = (   0.6595850   0.1638460   0.1672300  )
       147        Ga     tau( 147) = (   0.8381840  -0.0055660   0.1705650  )
       148        Ga     tau( 148) = (   0.8417720   0.1691540  -0.0028770  )
       149        Sb     tau( 149) = (   0.7524520   0.0815030   0.0820260  )
       150        Sb     tau( 150) = (   0.7555480   0.2471370   0.2481230  )
       151        As     tau( 151) = (   0.9191490   0.0795920   0.2502400  )
       152        As     tau( 152) = (   0.9229670   0.2506260   0.0815970  )
       153        Ga     tau( 153) = (   0.6690500  -0.0020990   0.3339440  )
       154        Ga     tau( 154) = (   0.6788130   0.1651400   0.5001800  )
       155        Ga     tau( 155) = (   0.8348620  -0.0000880   0.4995830  )
       156        Ga     tau( 156) = (   0.8405640   0.1595970   0.3371490  )
       157        As     tau( 157) = (   0.7539160   0.0799810   0.4158380  )
       158        As     tau( 158) = (   0.7559330   0.2476220   0.5849520  )
       159        As     tau( 159) = (   0.9151440   0.0836240   0.5848120  )
       160        As     tau( 160) = (   0.9188500   0.2476870   0.4185450  )
       161        Ga     tau( 161) = (   0.6766730  -0.0014260   0.6683960  )
       162        Ga     tau( 162) = (   0.6713630   0.1620690   0.8360930  )
       163        Ga     tau( 163) = (   0.8372770  -0.0013050   0.8326970  )
       164        Ga     tau( 164) = (   0.8346310   0.1650270   0.6701600  )
       165        As     tau( 165) = (   0.7545960   0.0817360   0.7527340  )
       166        As     tau( 166) = (   0.7548410   0.2467950   0.9165740  )
       167        As     tau( 167) = (   0.9197970   0.0815790   0.9155160  )
       168        As     tau( 168) = (   0.9185830   0.2466330   0.7502170  )
       169        Ga     tau( 169) = (   0.6725000   0.3259080   0.0022370  )
       170        Ga     tau( 170) = (   0.6737960   0.4966580   0.1605470  )
       171        Ga     tau( 171) = (   0.8423090   0.3358800   0.1619370  )
       172        Ga     tau( 172) = (   0.8294620   0.4956540  -0.0059310  )
       173        As     tau( 173) = (   0.7542260   0.4122350   0.0802990  )
       174        Sb     tau( 174) = (   0.7535910   0.5865160   0.2512080  )
       175        As     tau( 175) = (   0.9222690   0.4145090   0.2510160  )
       176        Sb     tau( 176) = (   0.9180840   0.5832770   0.0808000  )
       177        Ga     tau( 177) = (   0.6690890   0.3325350   0.3345620  )
       178        Ga     tau( 178) = (   0.6635650   0.5062240   0.5053780  )
       179        Ga     tau( 179) = (   0.8392660   0.3290940   0.5045760  )
       180        Ga     tau( 180) = (   0.8450220   0.5003120   0.3346200  )
       181        Sb     tau( 181) = (   0.7530730   0.4189440   0.4214640  )
       182        As     tau( 182) = (   0.7511140   0.5864400   0.5833110  )
       183        As     tau( 183) = (   0.9186420   0.4165640   0.5827280  )
       184        As     tau( 184) = (   0.9198110   0.5848570   0.4190900  )
       185        Ga     tau( 185) = (   0.6677390   0.3330340   0.6573550  )
       186        Ga     tau( 186) = (   0.6677110   0.5107510   0.8305650  )
       187        Ga     tau( 187) = (   0.8389180   0.3286560   0.8349470  )
       188        Ga     tau( 188) = (   0.8396530   0.5052880   0.6621670  )
       189        Sb     tau( 189) = (   0.7534550   0.4181780   0.7476840  )
       190        As     tau( 190) = (   0.7529240   0.5860670   0.9151090  )
       191        As     tau( 191) = (   0.9170110   0.4158400   0.9160220  )
       192        As     tau( 192) = (   0.9195970   0.5851940   0.7499920  )
       193        Ga     tau( 193) = (   0.6737300   0.6731990  -0.0043850  )
       194        Ga     tau( 194) = (   0.6724220   0.8321100   0.1712700  )
       195        Ga     tau( 195) = (   0.8350480   0.6781820   0.1641660  )
       196        Ga     tau( 196) = (   0.8361200   0.8366860   0.0000870  )
       197        As     tau( 197) = (   0.7524060   0.7560560   0.0810470  )
       198        As     tau( 198) = (   0.7534250   0.9150940   0.2534800  )
       199        As     tau( 199) = (   0.9168890   0.7547490   0.2495180  )
       200        As     tau( 200) = (   0.9197400   0.9159620   0.0836830  )
       201        Ga     tau( 201) = (   0.6628380   0.6693160   0.3396530  )
       202        Ga     tau( 202) = (   0.6681120   0.8343820   0.5020270  )
       203        Ga     tau( 203) = (   0.8336510   0.6682700   0.5000220  )
       204        Ga     tau( 204) = (   0.8339040   0.8329370   0.3366350  )
       205        As     tau( 205) = (   0.7499370   0.7510750   0.4190820  )
       206        As     tau( 206) = (   0.7542510   0.9166410   0.5822130  )
       207        As     tau( 207) = (   0.9179550   0.7500330   0.5836680  )
       208        As     tau( 208) = (   0.9157730   0.9168530   0.4176300  )
       209        Ga     tau( 209) = (   0.6625880   0.6656100   0.6623200  )
       210        Ga     tau( 210) = (   0.6668040   0.8333680   0.8413590  )
       211        Ga     tau( 211) = (   0.8401820   0.6644180   0.8360760  )
       212        Ga     tau( 212) = (   0.8390490   0.8369720   0.6634110  )
       213        Sb     tau( 213) = (   0.7512550   0.7499750   0.7500490  )
       214        As     tau( 214) = (   0.7545770   0.9166170   0.9147660  )
       215        As     tau( 215) = (   0.9179370   0.7527830   0.9169560  )
       216        As     tau( 216) = (   0.9197230   0.9180700   0.7488950  )

     number of k points=     8
                       cart. coord. in units 2pi/alat
        k(    1) = (   0.0000000   0.0000000   0.0000000), wk =   0.2500000
        k(    2) = (   0.0000000   0.0000000  -0.5000000), wk =   0.2500000
        k(    3) = (   0.0000000  -0.5000000  -0.5000000), wk =   0.2500000
        k(    4) = (  -0.5000000  -0.5000000  -0.5000000), wk =   0.2500000
        k(    5) = (  -0.5000000   0.0000000   0.0000000), wk =   0.2500000
        k(    6) = (   0.0000000  -0.5000000   0.0000000), wk =   0.2500000
        k(    7) = (  -0.5000000   0.0000000   0.5000000), wk =   0.2500000
        k(    8) = (  -0.5000000   0.5000000   0.0000000), wk =   0.2500000

     Dense  grid:  6293725 G-vectors     FFT dimensions: ( 240, 240, 240)

     Estimated max dynamical RAM per process >       2.44 GB

     Estimated total dynamical RAM >    1552.96 GB

     Initial potential from superposition of free atoms

     starting charge    3023.6766, renormalised to    3024.0000

     STARTING HUBBARD OCCUPATIONS:

     =================== HUBBARD OCCUPATIONS ===================
     ------------------------ ATOM    1 ------------------------
     Tr[ns(  1)] =   1.00000
     eigenvalues:
       0.167  0.167  0.167
     eigenvectors (columns):
       1.000  0.000  0.000
       0.000  1.000  0.000
       0.000  0.000  1.000
     occupation matrix ns (before diag.):
       0.167  0.000  0.000
       0.000  0.167  0.000
       0.000  0.000  0.167
     ------------------------ ATOM    2 ------------------------
     Tr[ns(  2)] =   1.00000
     eigenvalues:
       0.167  0.167  0.167
     eigenvectors (columns):
       1.000  0.000  0.000
       0.000  1.000  0.000
       0.000  0.000  1.000
     occupation matrix ns (before diag.):
       0.167  0.000  0.000
       0.000  0.167  0.000
       0.000  0.000  0.167
     ------------------------ ATOM    3 ------------------------
     Tr[ns(  3)] =   1.00000
     eigenvalues:
       0.167  0.167  0.167
     eigenvectors (columns):
       1.000  0.000  0.000
       0.000  1.000  0.000
       0.000  0.000  1.000
     occupation matrix ns (before diag.):
       0.167  0.000  0.000
       0.000  0.167  0.000
       0.000  0.000  0.167
     ------------------------ ATOM    4 ------------------------
     Tr[ns(  4)] =   1.00000
     eigenvalues:
       0.167  0.167  0.167
     eigenvectors (columns):
       1.000  0.000  0.000
       0.000  1.000  0.000
       0.000  0.000  1.000
     occupation matrix ns (before diag.):
       0.167  0.000  0.000
       0.000  0.167  0.000
       0.000  0.000  0.167
     ------------------------ ATOM    5 ------------------------
     Tr[ns(  5)] =   3.00000
     eigenvalues:
       0.500  0.500  0.500
     eigenvectors (columns):
       1.000  0.000  0.000
       0.000  1.000  0.000
       0.000  0.000  1.000
     occupation matrix ns (before diag.):
       0.500  0.000  0.000
       0.000  0.500  0.000
       0.000  0.000  0.500
     ------------------------ ATOM    6 ------------------------
     Tr[ns(  6)] =   3.00000
     eigenvalues:
       0.500  0.500  0.500
     eigenvectors (columns):
       1.000  0.000  0.000
       0.000  1.000  0.000
       0.000  0.000  1.000
     occupation matrix ns (before diag.):
       0.500  0.000  0.000
       0.000  0.500  0.000
       0.000  0.000  0.500
     ------------------------ ATOM    7 ------------------------
     Tr[ns(  7)] =   3.00000
     eigenvalues:
       0.500  0.500  0.500
     eigenvectors (columns):
       1.000  0.000  0.000
       0.000  1.000  0.000
       0.000  0.000  1.000
     occupation matrix ns (before diag.):
       0.500  0.000  0.000
       0.000  0.500  0.000
       0.000  0.000  0.500
     ------------------------ ATOM    8 ------------------------
     Tr[ns(  8)] =   3.00000
     eigenvalues:
       0.500  0.500  0.500
     eigenvectors (columns):
       1.000  0.000  0.000
       0.000  1.000  0.000
       0.000  0.000  1.000
     occupation matrix ns (before diag.):
       0.500  0.000  0.000
       0.000  0.500  0.000
       0.000  0.000  0.500
     ------------------------ ATOM    9 ------------------------
     Tr[ns(  9)] =   1.00000
     eigenvalues:
       0.167  0.167  0.167
     eigenvectors (columns):
       1.000  0.000  0.000
       0.000  1.000  0.000
       0.000  0.000  1.000
     occupation matrix ns (before diag.):
       0.167  0.000  0.000
       0.000  0.167  0.000
       0.000  0.000  0.167
     ------------------------ ATOM   10 ------------------------
     Tr[ns( 10)] =   1.00000
     eigenvalues:
       0.167  0.167  0.167
     eigenvectors (columns):
       1.000  0.000  0.000
       0.000  1.000  0.000
       0.000  0.000  1.000
     occupation matrix ns (before diag.):
       0.167  0.000  0.000
       0.000  0.167  0.000
       0.000  0.000  0.167
     ------------------------ ATOM   11 ------------------------
     Tr[ns( 11)] =   1.00000
     eigenvalues:
       0.167  0.167  0.167
     eigenvectors (columns):
       1.000  0.000  0.000
       0.000  1.000  0.000
       0.000  0.000  1.000
     occupation matrix ns (before diag.):
       0.167  0.000  0.000
       0.000  0.167  0.000
       0.000  0.000  0.167
     ------------------------ ATOM   12 ------------------------
     Tr[ns( 12)] =   1.00000
     eigenvalues:
       0.167  0.167  0.167
     eigenvectors (columns):
       1.000  0.000  0.000
       0.000  1.000  0.000
       0.000  0.000  1.000
     occupation matrix ns (before diag.):
       0.167  0.000  0.000
       0.000  0.167  0.000
       0.000  0.000  0.167
     ------------------------ ATOM   13 ------------------------
     Tr[ns( 13)] =   3.00000
     eigenvalues:
       0.500  0.500  0.500
     eigenvectors (columns):
       1.000  0.000  0.000
       0.000  1.000  0.000
       0.000  0.000  1.000
     occupation matrix ns (before diag.):
       0.500  0.000  0.000
       0.000  0.500  0.000
       0.000  0.000  0.500
     ------------------------ ATOM   14 ------------------------
     Tr[ns( 14)] =   3.00000
     eigenvalues:
       0.500  0.500  0.500
     eigenvectors (columns):
       1.000  0.000  0.000
       0.000  1.000  0.000
       0.000  0.000  1.000
     occupation matrix ns (before diag.):
       0.500  0.000  0.000
       0.000  0.500  0.000
       0.000  0.000  0.500
     ------------------------ ATOM   15 ------------------------
     Tr[ns( 15)] =   3.00000
     eigenvalues:
       0.500  0.500  0.500
     eigenvectors (columns):
       1.000  0.000  0.000
       0.000  1.000  0.000
       0.000  0.000  1.000
     occupation matrix ns (before diag.):
       0.500  0.000  0.000
       0.000  0.500  0.000
       0.000  0.000  0.500
     ------------------------ ATOM   16 ------------------------
     Tr[ns( 16)] =   3.00000
     eigenvalues:
       0.500  0.500  0.500
     eigenvectors (columns):
       1.000  0.000  0.000
       0.000  1.000  0.000
       0.000  0.000  1.000
     occupation matrix ns (before diag.):
       0.500  0.000  0.000
       0.000  0.500  0.000
       0.000  0.000  0.500
     ------------------------ ATOM   17 ------------------------
     Tr[ns( 17)] =   1.00000
     eigenvalues:
       0.167  0.167  0.167
     eigenvectors (columns):
       1.000  0.000  0.000
       0.000  1.000  0.000
       0.000  0.000  1.000
     occupation matrix ns (before diag.):
       0.167  0.000  0.000
       0.000  0.167  0.000
       0.000  0.000  0.167
     ------------------------ ATOM   18 ------------------------
     Tr[ns( 18)] =   1.00000
     eigenvalues:
       0.167  0.167  0.167
     eigenvectors (columns):
       1.000  0.000  0.000
       0.000  1.000  0.000
       0.000  0.000  1.000
     occupation matrix ns (before diag.):
       0.167  0.000  0.000
       0.000  0.167  0.000
       0.000  0.000  0.167
     ------------------------ ATOM   19 ------------------------
     Tr[ns( 19)] =   1.00000
     eigenvalues:
       0.167  0.167  0.167
     eigenvectors (columns):
       1.000  0.000  0.000
       0.000  1.000  0.000
       0.000  0.000  1.000
     occupation matrix ns (before diag.):
       0.167  0.000  0.000
       0.000  0.167  0.000
       0.000  0.000  0.167
     ------------------------ ATOM   20 ------------------------
     Tr[ns( 20)] =   1.00000
     eigenvalues:
       0.167  0.167  0.167
     eigenvectors (columns):
       1.000  0.000  0.000
       0.000  1.000  0.000
       0.000  0.000  1.000
     occupation matrix ns (before diag.):
       0.167  0.000  0.000
       0.000  0.167  0.000
       0.000  0.000  0.167
     ------------------------ ATOM   21 ------------------------
     Tr[ns( 21)] =   3.00000
     eigenvalues:
       0.500  0.500  0.500
     eigenvectors (columns):
       1.000  0.000  0.000
       0.000  1.000  0.000
       0.000  0.000  1.000
     occupation matrix ns (before diag.):
       0.500  0.000  0.000
       0.000  0.500  0.000
       0.000  0.000  0.500
     ------------------------ ATOM   22 ------------------------
     Tr[ns( 22)] =   3.00000
     eigenvalues:
       0.500  0.500  0.500
     eigenvectors (columns):
       1.000  0.000  0.000
       0.000  1.000  0.000
       0.000  0.000  1.000
     occupation matrix ns (before diag.):
       0.500  0.000  0.000
       0.000  0.500  0.000
       0.000  0.000  0.500
     ------------------------ ATOM   23 ------------------------
     Tr[ns( 23)] =   3.00000
     eigenvalues:
       0.500  0.500  0.500
     eigenvectors (columns):
       1.000  0.000  0.000
       0.000  1.000  0.000
       0.000  0.000  1.000
     occupation matrix ns (before diag.):
       0.500  0.000  0.000
       0.000  0.500  0.000
       0.000  0.000  0.500
     ------------------------ ATOM   24 ------------------------
     Tr[ns( 24)] =   3.00000
     eigenvalues:
       0.500  0.500  0.500
     eigenvectors (columns):
       1.000  0.000  0.000
       0.000  1.000  0.000
       0.000  0.000  1.000
     occupation matrix ns (before diag.):
       0.500  0.000  0.000
       0.000  0.500  0.000
       0.000  0.000  0.500
     ------------------------ ATOM   25 ------------------------
     Tr[ns( 25)] =   1.00000
     eigenvalues:
       0.167  0.167  0.167
     eigenvectors (columns):
       1.000  0.000  0.000
       0.000  1.000  0.000
       0.000  0.000  1.000
     occupation matrix ns (before diag.):
       0.167  0.000  0.000
       0.000  0.167  0.000
       0.000  0.000  0.167
     ------------------------ ATOM   26 ------------------------
     Tr[ns( 26)] =   1.00000
     eigenvalues:
       0.167  0.167  0.167
     eigenvectors (columns):
       1.000  0.000  0.000
       0.000  1.000  0.000
       0.000  0.000  1.000
     occupation matrix ns (before diag.):
       0.167  0.000  0.000
       0.000  0.167  0.000
       0.000  0.000  0.167
     ------------------------ ATOM   27 ------------------------
     Tr[ns( 27)] =   1.00000
     eigenvalues:
       0.167  0.167  0.167
     eigenvectors (columns):
       1.000  0.000  0.000
       0.000  1.000  0.000
       0.000  0.000  1.000
     occupation matrix ns (before diag.):
       0.167  0.000  0.000
       0.000  0.167  0.000
       0.000  0.000  0.167
     ------------------------ ATOM   28 ------------------------
     Tr[ns( 28)] =   1.00000
     eigenvalues:
       0.167  0.167  0.167
     eigenvectors (columns):
       1.000  0.000  0.000
       0.000  1.000  0.000
       0.000  0.000  1.000
     occupation matrix ns (before diag.):
       0.167  0.000  0.000
       0.000  0.167  0.000
       0.000  0.000  0.167
     ------------------------ ATOM   29 ------------------------
     Tr[ns( 29)] =   3.00000
     eigenvalues:
       0.500  0.500  0.500
     eigenvectors (columns):
       1.000  0.000  0.000
       0.000  1.000  0.000
       0.000  0.000  1.000
     occupation matrix ns (before diag.):
       0.500  0.000  0.000
       0.000  0.500  0.000
       0.000  0.000  0.500
     ------------------------ ATOM   30 ------------------------
     Tr[ns( 30)] =   3.00000
     eigenvalues:
       0.500  0.500  0.500
     eigenvectors (columns):
       1.000  0.000  0.000
       0.000  1.000  0.000
       0.000  0.000  1.000
     occupation matrix ns (before diag.):
       0.500  0.000  0.000
       0.000  0.500  0.000
       0.000  0.000  0.500
     ------------------------ ATOM   31 ------------------------
     Tr[ns( 31)] =   3.00000
     eigenvalues:
       0.500  0.500  0.500
     eigenvectors (columns):
       1.000  0.000  0.000
       0.000  1.000  0.000
       0.000  0.000  1.000
     occupation matrix ns (before diag.):
       0.500  0.000  0.000
       0.000  0.500  0.000
       0.000  0.000  0.500
     ------------------------ ATOM   32 ------------------------
     Tr[ns( 32)] =   3.00000
     eigenvalues:
       0.500  0.500  0.500
     eigenvectors (columns):
       1.000  0.000  0.000
       0.000  1.000  0.000
       0.000  0.000  1.000
     occupation matrix ns (before diag.):
       0.500  0.000  0.000
       0.000  0.500  0.000
       0.000  0.000  0.500
     ------------------------ ATOM   33 ------------------------
     Tr[ns( 33)] =   1.00000
     eigenvalues:
       0.167  0.167  0.167
     eigenvectors (columns):
       1.000  0.000  0.000
       0.000  1.000  0.000
       0.000  0.000  1.000
     occupation matrix ns (before diag.):
       0.167  0.000  0.000
       0.000  0.167  0.000
       0.000  0.000  0.167
     ------------------------ ATOM   34 ------------------------
     Tr[ns( 34)] =   1.00000
     eigenvalues:
       0.167  0.167  0.167
     eigenvectors (columns):
       1.000  0.000  0.000
       0.000  1.000  0.000
       0.000  0.000  1.000
     occupation matrix ns (before diag.):
       0.167  0.000  0.000
       0.000  0.167  0.000
       0.000  0.000  0.167
     ------------------------ ATOM   35 ------------------------
     Tr[ns( 35)] =   1.00000
     eigenvalues:
       0.167  0.167  0.167
     eigenvectors (columns):
       1.000  0.000  0.000
       0.000  1.000  0.000
       0.000  0.000  1.000
     occupation matrix ns (before diag.):
       0.167  0.000  0.000
       0.000  0.167  0.000
       0.000  0.000  0.167
     ------------------------ ATOM   36 ------------------------
     Tr[ns( 36)] =   1.00000
     eigenvalues:
       0.167  0.167  0.167
     eigenvectors (columns):
       1.000  0.000  0.000
       0.000  1.000  0.000
       0.000  0.000  1.000
     occupation matrix ns (before diag.):
       0.167  0.000  0.000
       0.000  0.167  0.000
       0.000  0.000  0.167
     ------------------------ ATOM   37 ------------------------
     Tr[ns( 37)] =   3.00000
     eigenvalues:
       0.500  0.500  0.500
     eigenvectors (columns):
       1.000  0.000  0.000
       0.000  1.000  0.000
       0.000  0.000  1.000
     occupation matrix ns (before diag.):
       0.500  0.000  0.000
       0.000  0.500  0.000
       0.000  0.000  0.500
     ------------------------ ATOM   38 ------------------------
     Tr[ns( 38)] =   3.00000
     eigenvalues:
       0.500  0.500  0.500
     eigenvectors (columns):
       1.000  0.000  0.000
       0.000  1.000  0.000
       0.000  0.000  1.000
     occupation matrix ns (before diag.):
       0.500  0.000  0.000
       0.000  0.500  0.000
       0.000  0.000  0.500
     ------------------------ ATOM   39 ------------------------
     Tr[ns( 39)] =   3.00000
     eigenvalues:
       0.500  0.500  0.500
     eigenvectors (columns):
       1.000  0.000  0.000
       0.000  1.000  0.000
       0.000  0.000  1.000
     occupation matrix ns (before diag.):
       0.500  0.000  0.000
       0.000  0.500  0.000
       0.000  0.000  0.500
     ------------------------ ATOM   40 ------------------------
     Tr[ns( 40)] =   3.00000
     eigenvalues:
       0.500  0.500  0.500
     eigenvectors (columns):
       1.000  0.000  0.000
       0.000  1.000  0.000
       0.000  0.000  1.000
     occupation matrix ns (before diag.):
       0.500  0.000  0.000
       0.000  0.500  0.000
       0.000  0.000  0.500
     ------------------------ ATOM   41 ------------------------
     Tr[ns( 41)] =   1.00000
     eigenvalues:
       0.167  0.167  0.167
     eigenvectors (columns):
       1.000  0.000  0.000
       0.000  1.000  0.000
       0.000  0.000  1.000
     occupation matrix ns (before diag.):
       0.167  0.000  0.000
       0.000  0.167  0.000
       0.000  0.000  0.167
     ------------------------ ATOM   42 ------------------------
     Tr[ns( 42)] =   1.00000
     eigenvalues:
       0.167  0.167  0.167
     eigenvectors (columns):
       1.000  0.000  0.000
       0.000  1.000  0.000
       0.000  0.000  1.000
     occupation matrix ns (before diag.):
       0.167  0.000  0.000
       0.000  0.167  0.000
       0.000  0.000  0.167
     ------------------------ ATOM   43 ------------------------
     Tr[ns( 43)] =   1.00000
     eigenvalues:
       0.167  0.167  0.167
     eigenvectors (columns):
       1.000  0.000  0.000
       0.000  1.000  0.000
       0.000  0.000  1.000
     occupation matrix ns (before diag.):
       0.167  0.000  0.000
       0.000  0.167  0.000
       0.000  0.000  0.167
     ------------------------ ATOM   44 ------------------------
     Tr[ns( 44)] =   1.00000
     eigenvalues:
       0.167  0.167  0.167
     eigenvectors (columns):
       1.000  0.000  0.000
       0.000  1.000  0.000
       0.000  0.000  1.000
     occupation matrix ns (before diag.):
       0.167  0.000  0.000
       0.000  0.167  0.000
       0.000  0.000  0.167
     ------------------------ ATOM   45 ------------------------
     Tr[ns( 45)] =   3.00000
     eigenvalues:
       0.500  0.500  0.500
     eigenvectors (columns):
       1.000  0.000  0.000
       0.000  1.000  0.000
       0.000  0.000  1.000
     occupation matrix ns (before diag.):
       0.500  0.000  0.000
       0.000  0.500  0.000
       0.000  0.000  0.500
     ------------------------ ATOM   46 ------------------------
     Tr[ns( 46)] =   3.00000
     eigenvalues:
       0.500  0.500  0.500
     eigenvectors (columns):
       1.000  0.000  0.000
       0.000  1.000  0.000
       0.000  0.000  1.000
     occupation matrix ns (before diag.):
       0.500  0.000  0.000
       0.000  0.500  0.000
       0.000  0.000  0.500
     ------------------------ ATOM   47 ------------------------
     Tr[ns( 47)] =   3.00000
     eigenvalues:
       0.500  0.500  0.500
     eigenvectors (columns):
       1.000  0.000  0.000
       0.000  1.000  0.000
       0.000  0.000  1.000
     occupation matrix ns (before diag.):
       0.500  0.000  0.000
       0.000  0.500  0.000
       0.000  0.000  0.500
     ------------------------ ATOM   48 ------------------------
     Tr[ns( 48)] =   3.00000
     eigenvalues:
       0.500  0.500  0.500
     eigenvectors (columns):
       1.000  0.000  0.000
       0.000  1.000  0.000
       0.000  0.000  1.000
     occupation matrix ns (before diag.):
       0.500  0.000  0.000
       0.000  0.500  0.000
       0.000  0.000  0.500
     ------------------------ ATOM   49 ------------------------
     Tr[ns( 49)] =   1.00000
     eigenvalues:
       0.167  0.167  0.167
     eigenvectors (columns):
       1.000  0.000  0.000
       0.000  1.000  0.000
       0.000  0.000  1.000
     occupation matrix ns (before diag.):
       0.167  0.000  0.000
       0.000  0.167  0.000
       0.000  0.000  0.167
     ------------------------ ATOM   50 ------------------------
     Tr[ns( 50)] =   1.00000
     eigenvalues:
       0.167  0.167  0.167
     eigenvectors (columns):
       1.000  0.000  0.000
       0.000  1.000  0.000
       0.000  0.000  1.000
     occupation matrix ns (before diag.):
       0.167  0.000  0.000
       0.000  0.167  0.000
       0.000  0.000  0.167
     ------------------------ ATOM   51 ------------------------
     Tr[ns( 51)] =   1.00000
     eigenvalues:
       0.167  0.167  0.167
     eigenvectors (columns):
       1.000  0.000  0.000
       0.000  1.000  0.000
       0.000  0.000  1.000
     occupation matrix ns (before diag.):
       0.167  0.000  0.000
       0.000  0.167  0.000
       0.000  0.000  0.167
     ------------------------ ATOM   52 ------------------------
     Tr[ns( 52)] =   1.00000
     eigenvalues:
       0.167  0.167  0.167
     eigenvectors (columns):
       1.000  0.000  0.000
       0.000  1.000  0.000
       0.000  0.000  1.000
     occupation matrix ns (before diag.):
       0.167  0.000  0.000
       0.000  0.167  0.000
       0.000  0.000  0.167
     ------------------------ ATOM   53 ------------------------
     Tr[ns( 53)] =   3.00000
     eigenvalues:
       0.500  0.500  0.500
     eigenvectors (columns):
       1.000  0.000  0.000
       0.000  1.000  0.000
       0.000  0.000  1.000
     occupation matrix ns (before diag.):
       0.500  0.000  0.000
       0.000  0.500  0.000
       0.000  0.000  0.500
     ------------------------ ATOM   54 ------------------------
     Tr[ns( 54)] =   3.00000
     eigenvalues:
       0.500  0.500  0.500
     eigenvectors (columns):
       1.000  0.000  0.000
       0.000  1.000  0.000
       0.000  0.000  1.000
     occupation matrix ns (before diag.):
       0.500  0.000  0.000
       0.000  0.500  0.000
       0.000  0.000  0.500
     ------------------------ ATOM   55 ------------------------
     Tr[ns( 55)] =   3.00000
     eigenvalues:
       0.500  0.500  0.500
     eigenvectors (columns):
       1.000  0.000  0.000
       0.000  1.000  0.000
       0.000  0.000  1.000
     occupation matrix ns (before diag.):
       0.500  0.000  0.000
       0.000  0.500  0.000
       0.000  0.000  0.500
     ------------------------ ATOM   56 ------------------------
     Tr[ns( 56)] =   3.00000
     eigenvalues:
       0.500  0.500  0.500
     eigenvectors (columns):
       1.000  0.000  0.000
       0.000  1.000  0.000
       0.000  0.000  1.000
     occupation matrix ns (before diag.):
       0.500  0.000  0.000
       0.000  0.500  0.000
       0.000  0.000  0.500
     ------------------------ ATOM   57 ------------------------
     Tr[ns( 57)] =   1.00000
     eigenvalues:
       0.167  0.167  0.167
     eigenvectors (columns):
       1.000  0.000  0.000
       0.000  1.000  0.000
       0.000  0.000  1.000
     occupation matrix ns (before diag.):
       0.167  0.000  0.000
       0.000  0.167  0.000
       0.000  0.000  0.167
     ------------------------ ATOM   58 ------------------------
     Tr[ns( 58)] =   1.00000
     eigenvalues:
       0.167  0.167  0.167
     eigenvectors (columns):
       1.000  0.000  0.000
       0.000  1.000  0.000
       0.000  0.000  1.000
     occupation matrix ns (before diag.):
       0.167  0.000  0.000
       0.000  0.167  0.000
       0.000  0.000  0.167
     ------------------------ ATOM   59 ------------------------
     Tr[ns( 59)] =   1.00000
     eigenvalues:
       0.167  0.167  0.167
     eigenvectors (columns):
       1.000  0.000  0.000
       0.000  1.000  0.000
       0.000  0.000  1.000
     occupation matrix ns (before diag.):
       0.167  0.000  0.000
       0.000  0.167  0.000
       0.000  0.000  0.167
     ------------------------ ATOM   60 ------------------------
     Tr[ns( 60)] =   1.00000
     eigenvalues:
       0.167  0.167  0.167
     eigenvectors (columns):
       1.000  0.000  0.000
       0.000  1.000  0.000
       0.000  0.000  1.000
     occupation matrix ns (before diag.):
       0.167  0.000  0.000
       0.000  0.167  0.000
       0.000  0.000  0.167
     ------------------------ ATOM   61 ------------------------
     Tr[ns( 61)] =   3.00000
     eigenvalues:
       0.500  0.500  0.500
     eigenvectors (columns):
       1.000  0.000  0.000
       0.000  1.000  0.000
       0.000  0.000  1.000
     occupation matrix ns (before diag.):
       0.500  0.000  0.000
       0.000  0.500  0.000
       0.000  0.000  0.500
     ------------------------ ATOM   62 ------------------------
     Tr[ns( 62)] =   3.00000
     eigenvalues:
       0.500  0.500  0.500
     eigenvectors (columns):
       1.000  0.000  0.000
       0.000  1.000  0.000
       0.000  0.000  1.000
     occupation matrix ns (before diag.):
       0.500  0.000  0.000
       0.000  0.500  0.000
       0.000  0.000  0.500
     ------------------------ ATOM   63 ------------------------
     Tr[ns( 63)] =   3.00000
     eigenvalues:
       0.500  0.500  0.500
     eigenvectors (columns):
       1.000  0.000  0.000
       0.000  1.000  0.000
       0.000  0.000  1.000
     occupation matrix ns (before diag.):
       0.500  0.000  0.000
       0.000  0.500  0.000
       0.000  0.000  0.500
     ------------------------ ATOM   64 ------------------------
     Tr[ns( 64)] =   3.00000
     eigenvalues:
       0.500  0.500  0.500
     eigenvectors (columns):
       1.000  0.000  0.000
       0.000  1.000  0.000
       0.000  0.000  1.000
     occupation matrix ns (before diag.):
       0.500  0.000  0.000
       0.000  0.500  0.000
       0.000  0.000  0.500
     ------------------------ ATOM   65 ------------------------
     Tr[ns( 65)] =   1.00000
     eigenvalues:
       0.167  0.167  0.167
     eigenvectors (columns):
       1.000  0.000  0.000
       0.000  1.000  0.000
       0.000  0.000  1.000
     occupation matrix ns (before diag.):
       0.167  0.000  0.000
       0.000  0.167  0.000
       0.000  0.000  0.167
     ------------------------ ATOM   66 ------------------------
     Tr[ns( 66)] =   1.00000
     eigenvalues:
       0.167  0.167  0.167
     eigenvectors (columns):
       1.000  0.000  0.000
       0.000  1.000  0.000
       0.000  0.000  1.000
     occupation matrix ns (before diag.):
       0.167  0.000  0.000
       0.000  0.167  0.000
       0.000  0.000  0.167
     ------------------------ ATOM   67 ------------------------
     Tr[ns( 67)] =   1.00000
     eigenvalues:
       0.167  0.167  0.167
     eigenvectors (columns):
       1.000  0.000  0.000
       0.000  1.000  0.000
       0.000  0.000  1.000
     occupation matrix ns (before diag.):
       0.167  0.000  0.000
       0.000  0.167  0.000
       0.000  0.000  0.167
     ------------------------ ATOM   68 ------------------------
     Tr[ns( 68)] =   1.00000
     eigenvalues:
       0.167  0.167  0.167
     eigenvectors (columns):
       1.000  0.000  0.000
       0.000  1.000  0.000
       0.000  0.000  1.000
     occupation matrix ns (before diag.):
       0.167  0.000  0.000
       0.000  0.167  0.000
       0.000  0.000  0.167
     ------------------------ ATOM   69 ------------------------
     Tr[ns( 69)] =   3.00000
     eigenvalues:
       0.500  0.500  0.500
     eigenvectors (columns):
       1.000  0.000  0.000
       0.000  1.000  0.000
       0.000  0.000  1.000
     occupation matrix ns (before diag.):
       0.500  0.000  0.000
       0.000  0.500  0.000
       0.000  0.000  0.500
     ------------------------ ATOM   70 ------------------------
     Tr[ns( 70)] =   3.00000
     eigenvalues:
       0.500  0.500  0.500
     eigenvectors (columns):
       1.000  0.000  0.000
       0.000  1.000  0.000
       0.000  0.000  1.000
     occupation matrix ns (before diag.):
       0.500  0.000  0.000
       0.000  0.500  0.000
       0.000  0.000  0.500
     ------------------------ ATOM   71 ------------------------
     Tr[ns( 71)] =   3.00000
     eigenvalues:
       0.500  0.500  0.500
     eigenvectors (columns):
       1.000  0.000  0.000
       0.000  1.000  0.000
       0.000  0.000  1.000
     occupation matrix ns (before diag.):
       0.500  0.000  0.000
       0.000  0.500  0.000
       0.000  0.000  0.500
     ------------------------ ATOM   72 ------------------------
     Tr[ns( 72)] =   3.00000
     eigenvalues:
       0.500  0.500  0.500
     eigenvectors (columns):
       1.000  0.000  0.000
       0.000  1.000  0.000
       0.000  0.000  1.000
     occupation matrix ns (before diag.):
       0.500  0.000  0.000
       0.000  0.500  0.000
       0.000  0.000  0.500
     ------------------------ ATOM   73 ------------------------
     Tr[ns( 73)] =   1.00000
     eigenvalues:
       0.167  0.167  0.167
     eigenvectors (columns):
       1.000  0.000  0.000
       0.000  1.000  0.000
       0.000  0.000  1.000
     occupation matrix ns (before diag.):
       0.167  0.000  0.000
       0.000  0.167  0.000
       0.000  0.000  0.167
     ------------------------ ATOM   74 ------------------------
     Tr[ns( 74)] =   1.00000
     eigenvalues:
       0.167  0.167  0.167
     eigenvectors (columns):
       1.000  0.000  0.000
       0.000  1.000  0.000
       0.000  0.000  1.000
     occupation matrix ns (before diag.):
       0.167  0.000  0.000
       0.000  0.167  0.000
       0.000  0.000  0.167
     ------------------------ ATOM   75 ------------------------
     Tr[ns( 75)] =   1.00000
     eigenvalues:
       0.167  0.167  0.167
     eigenvectors (columns):
       1.000  0.000  0.000
       0.000  1.000  0.000
       0.000  0.000  1.000
     occupation matrix ns (before diag.):
       0.167  0.000  0.000
       0.000  0.167  0.000
       0.000  0.000  0.167
     ------------------------ ATOM   76 ------------------------
     Tr[ns( 76)] =   1.00000
     eigenvalues:
       0.167  0.167  0.167
     eigenvectors (columns):
       1.000  0.000  0.000
       0.000  1.000  0.000
       0.000  0.000  1.000
     occupation matrix ns (before diag.):
       0.167  0.000  0.000
       0.000  0.167  0.000
       0.000  0.000  0.167
     ------------------------ ATOM   77 ------------------------
     Tr[ns( 77)] =   3.00000
     eigenvalues:
       0.500  0.500  0.500
     eigenvectors (columns):
       1.000  0.000  0.000
       0.000  1.000  0.000
       0.000  0.000  1.000
     occupation matrix ns (before diag.):
       0.500  0.000  0.000
       0.000  0.500  0.000
       0.000  0.000  0.500
     ------------------------ ATOM   78 ------------------------
     Tr[ns( 78)] =   3.00000
     eigenvalues:
       0.500  0.500  0.500
     eigenvectors (columns):
       1.000  0.000  0.000
       0.000  1.000  0.000
       0.000  0.000  1.000
     occupation matrix ns (before diag.):
       0.500  0.000  0.000
       0.000  0.500  0.000
       0.000  0.000  0.500
     ------------------------ ATOM   79 ------------------------
     Tr[ns( 79)] =   3.00000
     eigenvalues:
       0.500  0.500  0.500
     eigenvectors (columns):
       1.000  0.000  0.000
       0.000  1.000  0.000
       0.000  0.000  1.000
     occupation matrix ns (before diag.):
       0.500  0.000  0.000
       0.000  0.500  0.000
       0.000  0.000  0.500
     ------------------------ ATOM   80 ------------------------
     Tr[ns( 80)] =   3.00000
     eigenvalues:
       0.500  0.500  0.500
     eigenvectors (columns):
       1.000  0.000  0.000
       0.000  1.000  0.000
       0.000  0.000  1.000
     occupation matrix ns (before diag.):
       0.500  0.000  0.000
       0.000  0.500  0.000
       0.000  0.000  0.500
     ------------------------ ATOM   81 ------------------------
     Tr[ns( 81)] =   1.00000
     eigenvalues:
       0.167  0.167  0.167
     eigenvectors (columns):
       1.000  0.000  0.000
       0.000  1.000  0.000
       0.000  0.000  1.000
     occupation matrix ns (before diag.):
       0.167  0.000  0.000
       0.000  0.167  0.000
       0.000  0.000  0.167
     ------------------------ ATOM   82 ------------------------
     Tr[ns( 82)] =   1.00000
     eigenvalues:
       0.167  0.167  0.167
     eigenvectors (columns):
       1.000  0.000  0.000
       0.000  1.000  0.000
       0.000  0.000  1.000
     occupation matrix ns (before diag.):
       0.167  0.000  0.000
       0.000  0.167  0.000
       0.000  0.000  0.167
     ------------------------ ATOM   83 ------------------------
     Tr[ns( 83)] =   1.00000
     eigenvalues:
       0.167  0.167  0.167
     eigenvectors (columns):
       1.000  0.000  0.000
       0.000  1.000  0.000
       0.000  0.000  1.000
     occupation matrix ns (before diag.):
       0.167  0.000  0.000
       0.000  0.167  0.000
       0.000  0.000  0.167
     ------------------------ ATOM   84 ------------------------
     Tr[ns( 84)] =   1.00000
     eigenvalues:
       0.167  0.167  0.167
     eigenvectors (columns):
       1.000  0.000  0.000
       0.000  1.000  0.000
       0.000  0.000  1.000
     occupation matrix ns (before diag.):
       0.167  0.000  0.000
       0.000  0.167  0.000
       0.000  0.000  0.167
     ------------------------ ATOM   85 ------------------------
     Tr[ns( 85)] =   3.00000
     eigenvalues:
       0.500  0.500  0.500
     eigenvectors (columns):
       1.000  0.000  0.000
       0.000  1.000  0.000
       0.000  0.000  1.000
     occupation matrix ns (before diag.):
       0.500  0.000  0.000
       0.000  0.500  0.000
       0.000  0.000  0.500
     ------------------------ ATOM   86 ------------------------
     Tr[ns( 86)] =   3.00000
     eigenvalues:
       0.500  0.500  0.500
     eigenvectors (columns):
       1.000  0.000  0.000
       0.000  1.000  0.000
       0.000  0.000  1.000
     occupation matrix ns (before diag.):
       0.500  0.000  0.000
       0.000  0.500  0.000
       0.000  0.000  0.500
     ------------------------ ATOM   87 ------------------------
     Tr[ns( 87)] =   3.00000
     eigenvalues:
       0.500  0.500  0.500
     eigenvectors (columns):
       1.000  0.000  0.000
       0.000  1.000  0.000
       0.000  0.000  1.000
     occupation matrix ns (before diag.):
       0.500  0.000  0.000
       0.000  0.500  0.000
       0.000  0.000  0.500
     ------------------------ ATOM   88 ------------------------
     Tr[ns( 88)] =   3.00000
     eigenvalues:
       0.500  0.500  0.500
     eigenvectors (columns):
       1.000  0.000  0.000
       0.000  1.000  0.000
       0.000  0.000  1.000
     occupation matrix ns (before diag.):
       0.500  0.000  0.000
       0.000  0.500  0.000
       0.000  0.000  0.500
     ------------------------ ATOM   89 ------------------------
     Tr[ns( 89)] =   1.00000
     eigenvalues:
       0.167  0.167  0.167
     eigenvectors (columns):
       1.000  0.000  0.000
       0.000  1.000  0.000
       0.000  0.000  1.000
     occupation matrix ns (before diag.):
       0.167  0.000  0.000
       0.000  0.167  0.000
       0.000  0.000  0.167
     ------------------------ ATOM   90 ------------------------
     Tr[ns( 90)] =   1.00000
     eigenvalues:
       0.167  0.167  0.167
     eigenvectors (columns):
       1.000  0.000  0.000
       0.000  1.000  0.000
       0.000  0.000  1.000
     occupation matrix ns (before diag.):
       0.167  0.000  0.000
       0.000  0.167  0.000
       0.000  0.000  0.167
     ------------------------ ATOM   91 ------------------------
     Tr[ns( 91)] =   1.00000
     eigenvalues:
       0.167  0.167  0.167
     eigenvectors (columns):
       1.000  0.000  0.000
       0.000  1.000  0.000
       0.000  0.000  1.000
     occupation matrix ns (before diag.):
       0.167  0.000  0.000
       0.000  0.167  0.000
       0.000  0.000  0.167
     ------------------------ ATOM   92 ------------------------
     Tr[ns( 92)] =   1.00000
     eigenvalues:
       0.167  0.167  0.167
     eigenvectors (columns):
       1.000  0.000  0.000
       0.000  1.000  0.000
       0.000  0.000  1.000
     occupation matrix ns (before diag.):
       0.167  0.000  0.000
       0.000  0.167  0.000
       0.000  0.000  0.167
     ------------------------ ATOM   93 ------------------------
     Tr[ns( 93)] =   3.00000
     eigenvalues:
       0.500  0.500  0.500
     eigenvectors (columns):
       1.000  0.000  0.000
       0.000  1.000  0.000
       0.000  0.000  1.000
     occupation matrix ns (before diag.):
       0.500  0.000  0.000
       0.000  0.500  0.000
       0.000  0.000  0.500
     ------------------------ ATOM   94 ------------------------
     Tr[ns( 94)] =   3.00000
     eigenvalues:
       0.500  0.500  0.500
     eigenvectors (columns):
       1.000  0.000  0.000
       0.000  1.000  0.000
       0.000  0.000  1.000
     occupation matrix ns (before diag.):
       0.500  0.000  0.000
       0.000  0.500  0.000
       0.000  0.000  0.500
     ------------------------ ATOM   95 ------------------------
     Tr[ns( 95)] =   3.00000
     eigenvalues:
       0.500  0.500  0.500
     eigenvectors (columns):
       1.000  0.000  0.000
       0.000  1.000  0.000
       0.000  0.000  1.000
     occupation matrix ns (before diag.):
       0.500  0.000  0.000
       0.000  0.500  0.000
       0.000  0.000  0.500
     ------------------------ ATOM   96 ------------------------
     Tr[ns( 96)] =   3.00000
     eigenvalues:
       0.500  0.500  0.500
     eigenvectors (columns):
       1.000  0.000  0.000
       0.000  1.000  0.000
       0.000  0.000  1.000
     occupation matrix ns (before diag.):
       0.500  0.000  0.000
       0.000  0.500  0.000
       0.000  0.000  0.500
     ------------------------ ATOM   97 ------------------------
     Tr[ns( 97)] =   1.00000
     eigenvalues:
       0.167  0.167  0.167
     eigenvectors (columns):
       1.000  0.000  0.000
       0.000  1.000  0.000
       0.000  0.000  1.000
     occupation matrix ns (before diag.):
       0.167  0.000  0.000
       0.000  0.167  0.000
       0.000  0.000  0.167
     ------------------------ ATOM   98 ------------------------
     Tr[ns( 98)] =   1.00000
     eigenvalues:
       0.167  0.167  0.167
     eigenvectors (columns):
       1.000  0.000  0.000
       0.000  1.000  0.000
       0.000  0.000  1.000
     occupation matrix ns (before diag.):
       0.167  0.000  0.000
       0.000  0.167  0.000
       0.000  0.000  0.167
     ------------------------ ATOM   99 ------------------------
     Tr[ns( 99)] =   1.00000
     eigenvalues:
       0.167  0.167  0.167
     eigenvectors (columns):
       1.000  0.000  0.000
       0.000  1.000  0.000
       0.000  0.000  1.000
     occupation matrix ns (before diag.):
       0.167  0.000  0.000
       0.000  0.167  0.000
       0.000  0.000  0.167
     ------------------------ ATOM  100 ------------------------
     Tr[ns(100)] =   1.00000
     eigenvalues:
       0.167  0.167  0.167
     eigenvectors (columns):
       1.000  0.000  0.000
       0.000  1.000  0.000
       0.000  0.000  1.000
     occupation matrix ns (before diag.):
       0.167  0.000  0.000
       0.000  0.167  0.000
       0.000  0.000  0.167
     ------------------------ ATOM  101 ------------------------
     Tr[ns(101)] =   3.00000
     eigenvalues:
       0.500  0.500  0.500
     eigenvectors (columns):
       1.000  0.000  0.000
       0.000  1.000  0.000
       0.000  0.000  1.000
     occupation matrix ns (before diag.):
       0.500  0.000  0.000
       0.000  0.500  0.000
       0.000  0.000  0.500
     ------------------------ ATOM  102 ------------------------
     Tr[ns(102)] =   3.00000
     eigenvalues:
       0.500  0.500  0.500
     eigenvectors (columns):
       1.000  0.000  0.000
       0.000  1.000  0.000
       0.000  0.000  1.000
     occupation matrix ns (before diag.):
       0.500  0.000  0.000
       0.000  0.500  0.000
       0.000  0.000  0.500
     ------------------------ ATOM  103 ------------------------
     Tr[ns(103)] =   3.00000
     eigenvalues:
       0.500  0.500  0.500
     eigenvectors (columns):
       1.000  0.000  0.000
       0.000  1.000  0.000
       0.000  0.000  1.000
     occupation matrix ns (before diag.):
       0.500  0.000  0.000
       0.000  0.500  0.000
       0.000  0.000  0.500
     ------------------------ ATOM  104 ------------------------
     Tr[ns(104)] =   3.00000
     eigenvalues:
       0.500  0.500  0.500
     eigenvectors (columns):
       1.000  0.000  0.000
       0.000  1.000  0.000
       0.000  0.000  1.000
     occupation matrix ns (before diag.):
       0.500  0.000  0.000
       0.000  0.500  0.000
       0.000  0.000  0.500
     ------------------------ ATOM  105 ------------------------
     Tr[ns(105)] =   1.00000
     eigenvalues:
       0.167  0.167  0.167
     eigenvectors (columns):
       1.000  0.000  0.000
       0.000  1.000  0.000
       0.000  0.000  1.000
     occupation matrix ns (before diag.):
       0.167  0.000  0.000
       0.000  0.167  0.000
       0.000  0.000  0.167
     ------------------------ ATOM  106 ------------------------
     Tr[ns(106)] =   1.00000
     eigenvalues:
       0.167  0.167  0.167
     eigenvectors (columns):
       1.000  0.000  0.000
       0.000  1.000  0.000
       0.000  0.000  1.000
     occupation matrix ns (before diag.):
       0.167  0.000  0.000
       0.000  0.167  0.000
       0.000  0.000  0.167
     ------------------------ ATOM  107 ------------------------
     Tr[ns(107)] =   1.00000
     eigenvalues:
       0.167  0.167  0.167
     eigenvectors (columns):
       1.000  0.000  0.000
       0.000  1.000  0.000
       0.000  0.000  1.000
     occupation matrix ns (before diag.):
       0.167  0.000  0.000
       0.000  0.167  0.000
       0.000  0.000  0.167
     ------------------------ ATOM  108 ------------------------
     Tr[ns(108)] =   1.00000
     eigenvalues:
       0.167  0.167  0.167
     eigenvectors (columns):
       1.000  0.000  0.000
       0.000  1.000  0.000
       0.000  0.000  1.000
     occupation matrix ns (before diag.):
       0.167  0.000  0.000
       0.000  0.167  0.000
       0.000  0.000  0.167
     ------------------------ ATOM  109 ------------------------
     Tr[ns(109)] =   3.00000
     eigenvalues:
       0.500  0.500  0.500
     eigenvectors (columns):
       1.000  0.000  0.000
       0.000  1.000  0.000
       0.000  0.000  1.000
     occupation matrix ns (before diag.):
       0.500  0.000  0.000
       0.000  0.500  0.000
       0.000  0.000  0.500
     ------------------------ ATOM  110 ------------------------
     Tr[ns(110)] =   3.00000
     eigenvalues:
       0.500  0.500  0.500
     eigenvectors (columns):
       1.000  0.000  0.000
       0.000  1.000  0.000
       0.000  0.000  1.000
     occupation matrix ns (before diag.):
       0.500  0.000  0.000
       0.000  0.500  0.000
       0.000  0.000  0.500
     ------------------------ ATOM  111 ------------------------
     Tr[ns(111)] =   3.00000
     eigenvalues:
       0.500  0.500  0.500
     eigenvectors (columns):
       1.000  0.000  0.000
       0.000  1.000  0.000
       0.000  0.000  1.000
     occupation matrix ns (before diag.):
       0.500  0.000  0.000
       0.000  0.500  0.000
       0.000  0.000  0.500
     ------------------------ ATOM  112 ------------------------
     Tr[ns(112)] =   3.00000
     eigenvalues:
       0.500  0.500  0.500
     eigenvectors (columns):
       1.000  0.000  0.000
       0.000  1.000  0.000
       0.000  0.000  1.000
     occupation matrix ns (before diag.):
       0.500  0.000  0.000
       0.000  0.500  0.000
       0.000  0.000  0.500
     ------------------------ ATOM  113 ------------------------
     Tr[ns(113)] =   1.00000
     eigenvalues:
       0.167  0.167  0.167
     eigenvectors (columns):
       1.000  0.000  0.000
       0.000  1.000  0.000
       0.000  0.000  1.000
     occupation matrix ns (before diag.):
       0.167  0.000  0.000
       0.000  0.167  0.000
       0.000  0.000  0.167
     ------------------------ ATOM  114 ------------------------
     Tr[ns(114)] =   1.00000
     eigenvalues:
       0.167  0.167  0.167
     eigenvectors (columns):
       1.000  0.000  0.000
       0.000  1.000  0.000
       0.000  0.000  1.000
     occupation matrix ns (before diag.):
       0.167  0.000  0.000
       0.000  0.167  0.000
       0.000  0.000  0.167
     ------------------------ ATOM  115 ------------------------
     Tr[ns(115)] =   1.00000
     eigenvalues:
       0.167  0.167  0.167
     eigenvectors (columns):
       1.000  0.000  0.000
       0.000  1.000  0.000
       0.000  0.000  1.000
     occupation matrix ns (before diag.):
       0.167  0.000  0.000
       0.000  0.167  0.000
       0.000  0.000  0.167
     ------------------------ ATOM  116 ------------------------
     Tr[ns(116)] =   1.00000
     eigenvalues:
       0.167  0.167  0.167
     eigenvectors (columns):
       1.000  0.000  0.000
       0.000  1.000  0.000
       0.000  0.000  1.000
     occupation matrix ns (before diag.):
       0.167  0.000  0.000
       0.000  0.167  0.000
       0.000  0.000  0.167
     ------------------------ ATOM  117 ------------------------
     Tr[ns(117)] =   3.00000
     eigenvalues:
       0.500  0.500  0.500
     eigenvectors (columns):
       1.000  0.000  0.000
       0.000  1.000  0.000
       0.000  0.000  1.000
     occupation matrix ns (before diag.):
       0.500  0.000  0.000
       0.000  0.500  0.000
       0.000  0.000  0.500
     ------------------------ ATOM  118 ------------------------
     Tr[ns(118)] =   3.00000
     eigenvalues:
       0.500  0.500  0.500
     eigenvectors (columns):
       1.000  0.000  0.000
       0.000  1.000  0.000
       0.000  0.000  1.000
     occupation matrix ns (before diag.):
       0.500  0.000  0.000
       0.000  0.500  0.000
       0.000  0.000  0.500
     ------------------------ ATOM  119 ------------------------
     Tr[ns(119)] =   3.00000
     eigenvalues:
       0.500  0.500  0.500
     eigenvectors (columns):
       1.000  0.000  0.000
       0.000  1.000  0.000
       0.000  0.000  1.000
     occupation matrix ns (before diag.):
       0.500  0.000  0.000
       0.000  0.500  0.000
       0.000  0.000  0.500
     ------------------------ ATOM  120 ------------------------
     Tr[ns(120)] =   3.00000
     eigenvalues:
       0.500  0.500  0.500
     eigenvectors (columns):
       1.000  0.000  0.000
       0.000  1.000  0.000
       0.000  0.000  1.000
     occupation matrix ns (before diag.):
       0.500  0.000  0.000
       0.000  0.500  0.000
       0.000  0.000  0.500
     ------------------------ ATOM  121 ------------------------
     Tr[ns(121)] =   1.00000
     eigenvalues:
       0.167  0.167  0.167
     eigenvectors (columns):
       1.000  0.000  0.000
       0.000  1.000  0.000
       0.000  0.000  1.000
     occupation matrix ns (before diag.):
       0.167  0.000  0.000
       0.000  0.167  0.000
       0.000  0.000  0.167
     ------------------------ ATOM  122 ------------------------
     Tr[ns(122)] =   1.00000
     eigenvalues:
       0.167  0.167  0.167
     eigenvectors (columns):
       1.000  0.000  0.000
       0.000  1.000  0.000
       0.000  0.000  1.000
     occupation matrix ns (before diag.):
       0.167  0.000  0.000
       0.000  0.167  0.000
       0.000  0.000  0.167
     ------------------------ ATOM  123 ------------------------
     Tr[ns(123)] =   1.00000
     eigenvalues:
       0.167  0.167  0.167
     eigenvectors (columns):
       1.000  0.000  0.000
       0.000  1.000  0.000
       0.000  0.000  1.000
     occupation matrix ns (before diag.):
       0.167  0.000  0.000
       0.000  0.167  0.000
       0.000  0.000  0.167
     ------------------------ ATOM  124 ------------------------
     Tr[ns(124)] =   1.00000
     eigenvalues:
       0.167  0.167  0.167
     eigenvectors (columns):
       1.000  0.000  0.000
       0.000  1.000  0.000
       0.000  0.000  1.000
     occupation matrix ns (before diag.):
       0.167  0.000  0.000
       0.000  0.167  0.000
       0.000  0.000  0.167
     ------------------------ ATOM  125 ------------------------
     Tr[ns(125)] =   3.00000
     eigenvalues:
       0.500  0.500  0.500
     eigenvectors (columns):
       1.000  0.000  0.000
       0.000  1.000  0.000
       0.000  0.000  1.000
     occupation matrix ns (before diag.):
       0.500  0.000  0.000
       0.000  0.500  0.000
       0.000  0.000  0.500
     ------------------------ ATOM  126 ------------------------
     Tr[ns(126)] =   3.00000
     eigenvalues:
       0.500  0.500  0.500
     eigenvectors (columns):
       1.000  0.000  0.000
       0.000  1.000  0.000
       0.000  0.000  1.000
     occupation matrix ns (before diag.):
       0.500  0.000  0.000
       0.000  0.500  0.000
       0.000  0.000  0.500
     ------------------------ ATOM  127 ------------------------
     Tr[ns(127)] =   3.00000
     eigenvalues:
       0.500  0.500  0.500
     eigenvectors (columns):
       1.000  0.000  0.000
       0.000  1.000  0.000
       0.000  0.000  1.000
     occupation matrix ns (before diag.):
       0.500  0.000  0.000
       0.000  0.500  0.000
       0.000  0.000  0.500
     ------------------------ ATOM  128 ------------------------
     Tr[ns(128)] =   3.00000
     eigenvalues:
       0.500  0.500  0.500
     eigenvectors (columns):
       1.000  0.000  0.000
       0.000  1.000  0.000
       0.000  0.000  1.000
     occupation matrix ns (before diag.):
       0.500  0.000  0.000
       0.000  0.500  0.000
       0.000  0.000  0.500
     ------------------------ ATOM  129 ------------------------
     Tr[ns(129)] =   1.00000
     eigenvalues:
       0.167  0.167  0.167
     eigenvectors (columns):
       1.000  0.000  0.000
       0.000  1.000  0.000
       0.000  0.000  1.000
     occupation matrix ns (before diag.):
       0.167  0.000  0.000
       0.000  0.167  0.000
       0.000  0.000  0.167
     ------------------------ ATOM  130 ------------------------
     Tr[ns(130)] =   1.00000
     eigenvalues:
       0.167  0.167  0.167
     eigenvectors (columns):
       1.000  0.000  0.000
       0.000  1.000  0.000
       0.000  0.000  1.000
     occupation matrix ns (before diag.):
       0.167  0.000  0.000
       0.000  0.167  0.000
       0.000  0.000  0.167
     ------------------------ ATOM  131 ------------------------
     Tr[ns(131)] =   1.00000
     eigenvalues:
       0.167  0.167  0.167
     eigenvectors (columns):
       1.000  0.000  0.000
       0.000  1.000  0.000
       0.000  0.000  1.000
     occupation matrix ns (before diag.):
       0.167  0.000  0.000
       0.000  0.167  0.000
       0.000  0.000  0.167
     ------------------------ ATOM  132 ------------------------
     Tr[ns(132)] =   1.00000
     eigenvalues:
       0.167  0.167  0.167
     eigenvectors (columns):
       1.000  0.000  0.000
       0.000  1.000  0.000
       0.000  0.000  1.000
     occupation matrix ns (before diag.):
       0.167  0.000  0.000
       0.000  0.167  0.000
       0.000  0.000  0.167
     ------------------------ ATOM  133 ------------------------
     Tr[ns(133)] =   3.00000
     eigenvalues:
       0.500  0.500  0.500
     eigenvectors (columns):
       1.000  0.000  0.000
       0.000  1.000  0.000
       0.000  0.000  1.000
     occupation matrix ns (before diag.):
       0.500  0.000  0.000
       0.000  0.500  0.000
       0.000  0.000  0.500
     ------------------------ ATOM  134 ------------------------
     Tr[ns(134)] =   3.00000
     eigenvalues:
       0.500  0.500  0.500
     eigenvectors (columns):
       1.000  0.000  0.000
       0.000  1.000  0.000
       0.000  0.000  1.000
     occupation matrix ns (before diag.):
       0.500  0.000  0.000
       0.000  0.500  0.000
       0.000  0.000  0.500
     ------------------------ ATOM  135 ------------------------
     Tr[ns(135)] =   3.00000
     eigenvalues:
       0.500  0.500  0.500
     eigenvectors (columns):
       1.000  0.000  0.000
       0.000  1.000  0.000
       0.000  0.000  1.000
     occupation matrix ns (before diag.):
       0.500  0.000  0.000
       0.000  0.500  0.000
       0.000  0.000  0.500
     ------------------------ ATOM  136 ------------------------
     Tr[ns(136)] =   3.00000
     eigenvalues:
       0.500  0.500  0.500
     eigenvectors (columns):
       1.000  0.000  0.000
       0.000  1.000  0.000
       0.000  0.000  1.000
     occupation matrix ns (before diag.):
       0.500  0.000  0.000
       0.000  0.500  0.000
       0.000  0.000  0.500
     ------------------------ ATOM  137 ------------------------
     Tr[ns(137)] =   1.00000
     eigenvalues:
       0.167  0.167  0.167
     eigenvectors (columns):
       1.000  0.000  0.000
       0.000  1.000  0.000
       0.000  0.000  1.000
     occupation matrix ns (before diag.):
       0.167  0.000  0.000
       0.000  0.167  0.000
       0.000  0.000  0.167
     ------------------------ ATOM  138 ------------------------
     Tr[ns(138)] =   1.00000
     eigenvalues:
       0.167  0.167  0.167
     eigenvectors (columns):
       1.000  0.000  0.000
       0.000  1.000  0.000
       0.000  0.000  1.000
     occupation matrix ns (before diag.):
       0.167  0.000  0.000
       0.000  0.167  0.000
       0.000  0.000  0.167
     ------------------------ ATOM  139 ------------------------
     Tr[ns(139)] =   1.00000
     eigenvalues:
       0.167  0.167  0.167
     eigenvectors (columns):
       1.000  0.000  0.000
       0.000  1.000  0.000
       0.000  0.000  1.000
     occupation matrix ns (before diag.):
       0.167  0.000  0.000
       0.000  0.167  0.000
       0.000  0.000  0.167
     ------------------------ ATOM  140 ------------------------
     Tr[ns(140)] =   1.00000
     eigenvalues:
       0.167  0.167  0.167
     eigenvectors (columns):
       1.000  0.000  0.000
       0.000  1.000  0.000
       0.000  0.000  1.000
     occupation matrix ns (before diag.):
       0.167  0.000  0.000
       0.000  0.167  0.000
       0.000  0.000  0.167
     ------------------------ ATOM  141 ------------------------
     Tr[ns(141)] =   3.00000
     eigenvalues:
       0.500  0.500  0.500
     eigenvectors (columns):
       1.000  0.000  0.000
       0.000  1.000  0.000
       0.000  0.000  1.000
     occupation matrix ns (before diag.):
       0.500  0.000  0.000
       0.000  0.500  0.000
       0.000  0.000  0.500
     ------------------------ ATOM  142 ------------------------
     Tr[ns(142)] =   3.00000
     eigenvalues:
       0.500  0.500  0.500
     eigenvectors (columns):
       1.000  0.000  0.000
       0.000  1.000  0.000
       0.000  0.000  1.000
     occupation matrix ns (before diag.):
       0.500  0.000  0.000
       0.000  0.500  0.000
       0.000  0.000  0.500
     ------------------------ ATOM  143 ------------------------
     Tr[ns(143)] =   3.00000
     eigenvalues:
       0.500  0.500  0.500
     eigenvectors (columns):
       1.000  0.000  0.000
       0.000  1.000  0.000
       0.000  0.000  1.000
     occupation matrix ns (before diag.):
       0.500  0.000  0.000
       0.000  0.500  0.000
       0.000  0.000  0.500
     ------------------------ ATOM  144 ------------------------
     Tr[ns(144)] =   3.00000
     eigenvalues:
       0.500  0.500  0.500
     eigenvectors (columns):
       1.000  0.000  0.000
       0.000  1.000  0.000
       0.000  0.000  1.000
     occupation matrix ns (before diag.):
       0.500  0.000  0.000
       0.000  0.500  0.000
       0.000  0.000  0.500
     ------------------------ ATOM  145 ------------------------
     Tr[ns(145)] =   1.00000
     eigenvalues:
       0.167  0.167  0.167
     eigenvectors (columns):
       1.000  0.000  0.000
       0.000  1.000  0.000
       0.000  0.000  1.000
     occupation matrix ns (before diag.):
       0.167  0.000  0.000
       0.000  0.167  0.000
       0.000  0.000  0.167
     ------------------------ ATOM  146 ------------------------
     Tr[ns(146)] =   1.00000
     eigenvalues:
       0.167  0.167  0.167
     eigenvectors (columns):
       1.000  0.000  0.000
       0.000  1.000  0.000
       0.000  0.000  1.000
     occupation matrix ns (before diag.):
       0.167  0.000  0.000
       0.000  0.167  0.000
       0.000  0.000  0.167
     ------------------------ ATOM  147 ------------------------
     Tr[ns(147)] =   1.00000
     eigenvalues:
       0.167  0.167  0.167
     eigenvectors (columns):
       1.000  0.000  0.000
       0.000  1.000  0.000
       0.000  0.000  1.000
     occupation matrix ns (before diag.):
       0.167  0.000  0.000
       0.000  0.167  0.000
       0.000  0.000  0.167
     ------------------------ ATOM  148 ------------------------
     Tr[ns(148)] =   1.00000
     eigenvalues:
       0.167  0.167  0.167
     eigenvectors (columns):
       1.000  0.000  0.000
       0.000  1.000  0.000
       0.000  0.000  1.000
     occupation matrix ns (before diag.):
       0.167  0.000  0.000
       0.000  0.167  0.000
       0.000  0.000  0.167
     ------------------------ ATOM  149 ------------------------
     Tr[ns(149)] =   3.00000
     eigenvalues:
       0.500  0.500  0.500
     eigenvectors (columns):
       1.000  0.000  0.000
       0.000  1.000  0.000
       0.000  0.000  1.000
     occupation matrix ns (before diag.):
       0.500  0.000  0.000
       0.000  0.500  0.000
       0.000  0.000  0.500
     ------------------------ ATOM  150 ------------------------
     Tr[ns(150)] =   3.00000
     eigenvalues:
       0.500  0.500  0.500
     eigenvectors (columns):
       1.000  0.000  0.000
       0.000  1.000  0.000
       0.000  0.000  1.000
     occupation matrix ns (before diag.):
       0.500  0.000  0.000
       0.000  0.500  0.000
       0.000  0.000  0.500
     ------------------------ ATOM  151 ------------------------
     Tr[ns(151)] =   3.00000
     eigenvalues:
       0.500  0.500  0.500
     eigenvectors (columns):
       1.000  0.000  0.000
       0.000  1.000  0.000
       0.000  0.000  1.000
     occupation matrix ns (before diag.):
       0.500  0.000  0.000
       0.000  0.500  0.000
       0.000  0.000  0.500
     ------------------------ ATOM  152 ------------------------
[...]
   -25.8895 -25.8894 -25.8892 -25.8890 -25.8886 -25.8886 -25.8885 -25.8882
   -25.8881 -25.8881 -25.8878 -25.8877 -25.8877 -25.8876 -25.8871 -25.8868
   -25.8866 -25.8865 -25.8864 -25.8862 -25.8858 -25.8857 -25.8852 -25.8850
   -25.8845 -25.8843 -25.8841 -25.8840 -25.8838 -25.8835 -25.8832 -25.8830
   -25.8829 -25.8828 -25.8814 -25.8812 -25.8812 -25.8812 -25.8812 -25.8805
   -25.8804 -25.8803 -25.8797 -25.8791 -25.8791 -25.8790 -25.8777 -25.8777
   -25.8771 -25.8769 -25.8768 -25.8761 -25.8758 -25.8754 -25.8752 -25.8752
   -25.8748 -25.8741 -25.8732 -25.8725 -25.8710 -25.8702 -25.8681 -25.8661
   -25.8623 -25.8570 -25.8491 -25.8484 -25.8399 -19.3603 -19.3581 -19.3574
   -19.3555 -19.3537 -19.3528 -19.3515 -19.3504 -19.3501 -19.3486 -19.3481
   -19.3478 -19.3464 -19.3447 -19.3443 -19.3441 -19.3437 -19.3437 -19.3435
   -19.3431 -19.3429 -19.3426 -19.3424 -19.3418 -19.3405 -19.3399 -19.3392
   -19.3380 -19.3367 -19.3366 -19.3361 -19.3358 -19.3344 -19.3339 -19.3338
   -19.3337 -19.3326 -19.3318 -19.3316 -19.3314 -19.3308 -19.3305 -19.3300
   -19.3290 -19.3286 -19.3280 -19.3279 -19.3278 -19.3271 -19.3269 -19.3263
   -19.3263 -19.3255 -19.3252 -19.3248 -19.3248 -19.3243 -19.3238 -19.3237
   -19.3232 -19.3225 -19.3221 -19.3215 -19.3210 -19.3207 -19.3206 -19.3204
   -19.3203 -19.3196 -19.3194 -19.3190 -19.3189 -19.3185 -19.3183 -19.3179
   -19.3176 -19.3174 -19.3171 -19.3170 -19.3169 -19.3164 -19.3157 -19.3150
   -19.3143 -19.3143 -19.3137 -19.3136 -19.3132 -19.3131 -19.3126 -19.3125
   -19.3122 -19.3116 -19.3114 -19.3109 -19.3104 -19.3097 -19.3091 -19.3083
   -19.3081 -19.3080 -19.3055 -19.3045 -19.3043 -19.3039 -19.3036 -19.3027
   -19.3022 -19.3011 -19.3004 -19.3003 -19.2997 -19.2995 -19.2991 -19.2978
   -19.2972 -19.2969 -19.2954 -19.2943 -19.2940 -19.2936 -19.2923 -19.2916
   -19.2913 -19.2906 -19.2897 -19.2871 -19.2855 -19.2854 -19.2846 -19.2827
   -19.2817 -19.2817 -19.2771 -19.2717  -7.2227  -7.2181  -7.2172  -7.2150
    -7.2125  -7.2097  -7.2091  -7.2035  -7.2011  -7.1975  -7.1965  -7.1962
    -7.1952  -7.1932  -7.1928  -7.1922  -7.1914  -7.1912  -7.1907  -7.1899
    -7.1883  -7.1871  -7.1869  -7.1865  -7.1863  -7.1857  -7.1850  -7.1839
    -7.1836  -7.1818  -7.1813  -7.1803  -7.1796  -7.1789  -7.1779  -7.1770
    -7.1755  -7.1747  -7.1745  -7.1728  -7.1712  -7.1701  -7.1695  -7.1693
    -7.1686  -7.1680  -7.1678  -7.1667  -7.1662  -7.1659  -7.1652  -7.1650
    -7.1640  -7.1638  -7.1631  -7.1630  -7.1611  -7.1578  -7.1574  -7.1570
    -7.1565  -7.1562  -7.1558  -7.1553  -7.1541  -7.1538  -7.1526  -7.1523
    -7.1519  -7.1517  -7.1515  -7.1509  -7.1500  -7.1494  -7.1487  -7.1483
    -7.1479  -7.1471  -7.1467  -7.1459  -7.1454  -7.1450  -7.1443  -7.1441
    -7.1439  -7.1425  -7.1421  -7.1416  -7.1412  -7.1399  -7.1394  -7.1391
    -7.1387  -7.1376  -7.1370  -7.1367  -7.1362  -7.1356  -7.1353  -7.1351
    -7.1345  -7.1340  -7.1329  -7.1326  -7.1319  -7.1316  -7.1314  -7.1311
    -7.1311  -7.1306  -7.1301  -7.1296  -7.1291  -7.1288  -7.1278  -7.1277
    -7.1266  -7.1263  -7.1260  -7.1256  -7.1253  -7.1250  -7.1245  -7.1243
    -7.1236  -7.1235  -7.1232  -7.1225  -7.1221  -7.1219  -7.1213  -7.1208
    -7.1203  -7.1201  -7.1199  -7.1192  -7.1188  -7.1185  -7.1182  -7.1177
    -7.1173  -7.1168  -7.1164  -7.1161  -7.1158  -7.1156  -7.1154  -7.1149
    -7.1148  -7.1140  -7.1138  -7.1136  -7.1132  -7.1130  -7.1121  -7.1120
    -7.1117  -7.1115  -7.1110  -7.1109  -7.1105  -7.1098  -7.1097  -7.1090
    -7.1086  -7.1085  -7.1078  -7.1074  -7.1070  -7.1065  -7.1062  -7.1057
    -7.1055  -7.1049  -7.1044  -7.1039  -7.1032  -7.1030  -7.1026  -7.1020
    -7.1017  -7.1015  -7.1010  -7.1005  -7.1003  -7.0999  -7.0997  -7.0991
    -7.0988  -7.0987  -7.0985  -7.0979  -7.0971  -7.0966  -7.0959  -7.0956
    -7.0954  -7.0949  -7.0945  -7.0939  -7.0938  -7.0933  -7.0930  -7.0928
    -7.0926  -7.0920  -7.0918  -7.0914  -7.0911  -7.0910  -7.0907  -7.0901
    -7.0899  -7.0893  -7.0890  -7.0881  -7.0878  -7.0876  -7.0869  -7.0868
    -7.0860  -7.0853  -7.0851  -7.0848  -7.0842  -7.0840  -7.0835  -7.0833
    -7.0830  -7.0826  -7.0821  -7.0817  -7.0815  -7.0812  -7.0810  -7.0807
    -7.0804  -7.0795  -7.0789  -7.0789  -7.0785  -7.0780  -7.0779  -7.0772
    -7.0770  -7.0767  -7.0763  -7.0760  -7.0758  -7.0757  -7.0753  -7.0750
    -7.0745  -7.0743  -7.0739  -7.0735  -7.0730  -7.0729  -7.0727  -7.0722
    -7.0717  -7.0709  -7.0705  -7.0704  -7.0703  -7.0698  -7.0696  -7.0691
    -7.0688  -7.0686  -7.0682  -7.0676  -7.0668  -7.0664  -7.0661  -7.0659
    -7.0653  -7.0652  -7.0648  -7.0646  -7.0640  -7.0638  -7.0632  -7.0631
    -7.0629  -7.0624  -7.0621  -7.0617  -7.0616  -7.0610  -7.0604  -7.0603
    -7.0601  -7.0597  -7.0595  -7.0590  -7.0588  -7.0587  -7.0586  -7.0584
    -7.0581  -7.0579  -7.0573  -7.0569  -7.0565  -7.0561  -7.0561  -7.0554
    -7.0550  -7.0550  -7.0547  -7.0543  -7.0541  -7.0536  -7.0533  -7.0531
    -7.0524  -7.0520  -7.0516  -7.0515  -7.0508  -7.0505  -7.0502  -7.0501
    -7.0498  -7.0492  -7.0484  -7.0482  -7.0475  -7.0471  -7.0468  -7.0465
    -7.0462  -7.0456  -7.0452  -7.0450  -7.0450  -7.0445  -7.0441  -7.0440
    -7.0434  -7.0430  -7.0428  -7.0423  -7.0420  -7.0418  -7.0413  -7.0410
    -7.0404  -7.0403  -7.0400  -7.0397  -7.0394  -7.0392  -7.0387  -7.0384
    -7.0378  -7.0376  -7.0372  -7.0370  -7.0363  -7.0356  -7.0354  -7.0352
    -7.0350  -7.0346  -7.0342  -7.0339  -7.0335  -7.0333  -7.0329  -7.0321
    -7.0321  -7.0314  -7.0307  -7.0304  -7.0301  -7.0298  -7.0296  -7.0292
    -7.0282  -7.0281  -7.0278  -7.0274  -7.0265  -7.0264  -7.0262  -7.0256
    -7.0254  -7.0248  -7.0245  -7.0242  -7.0240  -7.0238  -7.0233  -7.0230
    -7.0226  -7.0222  -7.0219  -7.0218  -7.0217  -7.0215  -7.0207  -7.0205
    -7.0200  -7.0197  -7.0191  -7.0188  -7.0181  -7.0176  -7.0172  -7.0170
    -7.0165  -7.0162  -7.0160  -7.0154  -7.0150  -7.0146  -7.0141  -7.0138
    -7.0130  -7.0126  -7.0119  -7.0118  -7.0115  -7.0108  -7.0105  -7.0100
    -7.0098  -7.0095  -7.0089  -7.0086  -7.0082  -7.0079  -7.0074  -7.0069
    -7.0062  -7.0055  -7.0052  -7.0049  -7.0046  -7.0041  -7.0035  -7.0033
    -7.0023  -7.0018  -7.0012  -7.0009  -7.0006  -7.0000  -6.9992  -6.9985
    -6.9974  -6.9970  -6.9968  -6.9966  -6.9963  -6.9958  -6.9956  -6.9954
    -6.9943  -6.9940  -6.9935  -6.9929  -6.9923  -6.9916  -6.9912  -6.9907
    -6.9888  -6.9886  -6.9879  -6.9875  -6.9872  -6.9862  -6.9860  -6.9857
    -6.9853  -6.9846  -6.9840  -6.9837  -6.9834  -6.9826  -6.9815  -6.9812
    -6.9809  -6.9804  -6.9801  -6.9792  -6.9791  -6.9769  -6.9765  -6.9743
    -6.9734  -6.9732  -6.9725  -6.9724  -6.9717  -6.9709  -6.9707  -6.9697
    -6.9684  -6.9682  -6.9675  -6.9669  -6.9654  -6.9642  -6.9638  -6.9611
    -6.9605  -6.9596  -6.9572  -6.9562  -6.9540  -6.9532  -6.9504  -6.9499
    -6.9488  -6.9472  -6.9461  -6.9450  -6.9432  -6.9427  -6.9343  -6.9333
    -6.9323  -6.9288  -6.9273  -6.9177  -6.9151  -6.9080  -6.9045  -6.9023
    -6.9006  -6.8552  -6.8534  -6.8510  -6.8476  -6.8464  -6.8016  -6.7978
    -3.6141  -3.5506  -3.5429  -3.4792  -3.3567  -3.3164  -3.2954  -3.2668
    -3.2511  -3.2155  -3.1995  -3.1113  -3.0573  -3.0164  -3.0058  -2.9757
    -2.9522  -2.9418  -2.8829  -2.8694  -2.8018  -2.7821  -2.7649  -2.7570
    -2.7427  -2.7318  -2.7029  -2.6926  -2.6843  -2.6661  -2.6546  -2.6199
    -2.5810  -2.5581  -2.5034  -2.4843  -2.4809  -2.4442  -2.4308  -2.4198
    -2.3948  -2.3932  -2.3618  -2.3565  -2.3290  -2.3109  -2.2931  -2.2825
    -2.2672  -2.2119  -2.2064  -2.1877  -2.1727  -2.1566  -2.1249  -2.0795
    -1.9471  -1.9372  -1.9167  -1.9093  -1.8958  -1.8841  -1.8748  -1.8590
    -1.8361  -1.8037  -1.7946  -1.7759  -1.7522  -1.7462  -1.7313  -1.7157
    -1.7003  -1.6862  -1.6226  -1.6152  -1.6104  -1.5884  -1.5508  -1.5354
    -1.5023  -1.4761  -1.4451  -1.4344  -1.4150  -1.4080  -1.3808  -1.3555
    -1.3351  -1.2887  -1.2853  -1.2524  -1.2191  -1.2173  -1.1764  -1.1242
    -1.0732  -1.0433  -1.0216  -0.9875  -0.9603  -0.9554  -0.9275  -0.8980
    -0.8564  -0.8067  -0.7986  -0.7564  -0.4631  -0.4117  -0.3856  -0.2550
     0.0727   0.1035   0.1090   0.1133   0.1219   0.1388   0.1522   0.1625
     0.1678   0.1722   0.1888   0.1981   0.2022   0.2132   0.2149   0.2239
     0.2402   0.2534   0.2615   0.2732   0.2852   0.2911   0.3000   0.3094
     0.3209   0.3318   0.3387   0.3459   0.3697   0.3911   0.3944   0.4164
     0.4253   0.4387   0.4611   0.4837   0.5017   0.5368   0.5432   0.5589
     0.5860   0.6061   0.6282   0.6551   0.6761   0.6896   0.7363   0.7665
     0.8087   0.8217   0.8505   0.8735   0.9290   0.9771   1.0143   1.0520
     1.3113   1.3776   1.3915   1.4156   1.4584   1.4714   1.4887   1.5164
     1.5665   1.6134   1.6304   1.6495   1.6706   1.7224   1.7538   1.7732
     1.8108   1.8347   1.8475   1.8616   1.8846   1.8955   1.9276   1.9714
     1.9979   2.0183   2.0750   2.1125   2.8268   2.8777   2.9070   2.9201
     2.9694   2.9834   2.9896   3.0103   3.0316   3.0357   3.0409   3.0734
     3.0852   3.0942   3.1103   3.1284   3.3145   3.3314   3.3422   3.3522
     3.3594   3.3757   3.3920   3.4097   3.4125   3.4188   3.4341   3.4455
     3.4592   3.4722   3.4883   3.5006   3.5348   3.5471   3.5617   3.5776
     3.5959   3.6152   3.6263   3.6508   3.6559   3.6713   3.6865   3.6969
     3.7300   3.7347   3.7404   3.7606   3.7750   3.7958   3.8126   3.8185
     3.8243   3.8342   3.8493   3.8632   3.8784   3.8950   3.9196   3.9298
     3.9404   3.9687   3.9838   4.0211   4.1927   4.2125   4.2335   4.2827
     4.3211   4.3523   4.3884   4.3983   4.4171   4.4319   4.4473   4.4535
     4.4858   4.4959   4.5010   4.5029   4.5118   4.5448   4.5587   4.5734
     4.5817   4.5920   4.5988   4.6108   4.6186   4.6364   4.6505   4.6588
     4.6877   4.6999   4.7090   4.7186   4.7287   4.7411   4.7698   4.7761
     4.8009   4.8140   4.8258   4.8365   4.8633   4.8805   4.8919   4.9144
     4.9275   4.9320   4.9503   4.9577   4.9817   4.9969   5.0021   5.0282
     5.0413   5.0615   5.0671   5.0816   5.0882   5.0966   5.1024   5.1169
     5.1257   5.1452   5.1547   5.1679   5.1903   5.1973   5.2125   5.2199
     5.2397   5.2592   5.2736   5.2887   5.2946   5.3140   5.3268   5.3348
     5.3365   5.3612   5.3815   5.3880   5.3955   5.4059   5.4330   5.4338
     5.4697   5.4732   5.4830   5.4882   5.5043   5.5199   5.5518   5.5579
     5.5745   5.5843   5.6023   5.6134   5.6364   5.6445   5.6677   5.6806
     5.6854   5.7229   5.7295   5.7494   5.7604   5.7736   5.8213   5.8294
     5.8711   5.8825   5.8915   5.9147   5.9245   5.9435   5.9667   5.9979
     6.0219   6.0321   6.0626   6.0764   6.0932   6.1039   6.1269   6.1407
     6.1636   6.1890   6.1928   6.2027   6.2300   6.2480   6.2569   6.2753
     6.3015   6.3091   6.3480   6.3580   6.3645   6.3840   6.4103   6.4239
     6.4435   6.4613   6.4775   6.5030   6.5276   6.5337   6.5574   6.5693
     6.5989   6.6194   6.6349   6.6593   6.6689   6.6940   6.7099   6.7259
     6.7403   6.7834   6.8092   6.8331   6.8436   6.8698   6.9224   6.9685
     6.9836   7.0312   7.0825   7.2436   7.3840   7.4666   7.5231   7.5746
     9.6238   9.6769   9.6826   9.6957   9.7361   9.7481   9.7626   9.7754
     9.8351   9.8706   9.8805   9.9318   9.9427   9.9531   9.9718   9.9926
    10.0027  10.0206  10.0264  10.0443  10.0609  10.0664  10.0750  10.0892
    10.1130  10.1297  10.1389  10.1402  10.1791  10.1854  10.2075  10.2202
    10.2481  10.2781  10.2974  10.3118  10.3360  10.3509  10.3630  10.3787
    10.3917  10.3983  10.4209  10.4370  10.4414  10.4468  10.4529  10.4672
    10.4835  10.4901  10.4968  10.5108  10.5170  10.5311  10.5396  10.5583
    10.5673  10.5781  10.5939  10.6000  10.6053  10.6275  10.6337  10.6504
    10.6648  10.6725  10.6858  10.6920  10.7067  10.7146  10.7370  10.7479
    10.7628  10.7681  10.7755  10.7900  10.8135  10.8182  10.8289  10.8365
    10.8415  10.8507  10.8662  10.8807  10.8874  10.9075  10.9179  10.9280
    10.9316  10.9474  10.9602  10.9718  10.9817  10.9866  11.0017  11.0231
    11.0351  11.0437  11.0593  11.0732  11.0872  11.0896  11.1240  11.1268
    11.1502  11.1599  11.2099  11.2243  11.5016  11.5134  11.5627  11.5668
    11.7352  11.7651  11.7868  11.7944  11.8098  11.8180  11.8365  11.8476
    11.8589  11.8696  11.8782  11.8834  11.8953  11.9104  11.9189  11.9359
    11.9549  11.9785  11.9864  12.0088  12.0313  12.0637  12.0763  12.0888
    12.1083  12.1243  12.1392  12.1558  12.1652  12.1739  12.1780  12.1845
    12.2043  12.2145  12.2213  12.2254  12.2315  12.2510  12.2689  12.2737
    12.4150  12.4469  12.4535  12.4655  12.4782  12.4909  12.5018  12.5080
    12.5196  12.5238  12.5345  12.5390  12.5594  12.5743  12.5813  12.6089
    12.6572  12.6732  12.6930  12.7070  12.7158  12.7293  12.7316  12.7488
    12.7518  12.7558  12.7713  12.7726  12.7798  12.7870  12.7908  12.7992
    12.8019  12.8078  12.8115  12.8223  12.8257  12.8461  12.8511  12.8617
    12.8653  12.8718  12.8766  12.8849  12.8993  12.9115  12.9178  12.9278
    12.9326  12.9354  12.9489  12.9629  12.9825  12.9945  12.9998  13.0102
    13.0266  13.0351  13.0501  13.0530  13.0614  13.0767  13.0868  13.0951
    13.1009  13.1093  13.1153  13.1255  13.1859  13.2062  13.2376  13.2409
    13.2714  13.2992  13.3072  13.3644  13.4028  13.4167  13.4370  13.4423
    13.4490  13.4545  13.4632  13.4743  13.5061  13.5215  13.5263  13.5488
    13.5601  13.5739  13.5968  13.6111  13.6140  13.6270  13.6314  13.6488
    13.6647  13.6738  13.6781  13.6889  13.7056  13.7118  13.7170  13.7203
    13.7288  13.7318  13.7612  13.7653  13.7695  13.7698  13.7997  13.8012
    13.8074  13.8153  13.8215  13.8377  13.8477  13.8586  13.8611  13.8744
    13.9021  13.9131  13.9193  13.9373  13.9538  13.9707  13.9815  14.0013
    14.0099  14.0307  14.0381  14.0420  14.1700  14.1860  14.1980  14.2147
    14.2152  14.2275  14.2404  14.2501  14.2575  14.2681  14.2728  14.2891
    14.2914  14.2958  14.3144  14.3172  14.3250  14.3341  14.3377  14.3449
    14.3544  14.3595  14.3674  14.3709  14.3822  14.3891  14.4105  14.4144
    14.4219  14.4232  14.4388  14.4439  14.4565  14.4619  14.4648  14.4818
    14.4886  14.5034  14.5114  14.5311  14.5386  14.5403  14.5520  14.5558
    14.5667  14.5727  14.5746  14.5807  14.5916  14.6012  14.6218  14.6410
    14.6432  14.6623  14.6729  14.6835  14.6896  14.6952  14.7014  14.7245
    14.7267  14.7526  14.7828  14.8091  14.8395  14.8502  14.8523  14.9275
    15.0703  15.0840  15.0978  15.1052  15.1068  15.1321  15.1406  15.1750
    15.2225  15.2343  15.3055  15.3161  15.3337  15.3685  15.4067  15.4679
    15.5373  15.5636  15.5717  15.5817  15.5862  15.6080  15.6202  15.6227
    15.6327  15.6701  15.6743  15.6765  15.7010  15.7124  15.7261  15.7523
    15.8924  15.9084  15.9341  15.9543  15.9709  15.9869  15.9958  16.0118
    16.0256  16.0357  16.0442  16.0601  16.0693  16.0737  16.0841  16.0853
    16.0972  16.1042  16.1211  16.1306  16.1470  16.1511  16.1668  16.1850
    16.1936  16.2109  16.2220  16.2244  16.2519  16.2661  16.2740  16.2905
    16.3041  16.3289  16.3417  16.3586  16.3613  16.3900  16.3968  16.4209
    16.4384  16.4634  16.4706  16.4899  16.5197  16.5407  16.5584  16.5718
    16.5948  16.6034  16.6110  16.6144  16.6410  16.6600  16.6769  16.6920
    16.7650  16.7731  16.7853  16.8112  16.8561  16.8818  16.8858  16.9014
    16.9067  16.9210  16.9261  16.9306  16.9502  16.9537  16.9613  16.9696
    16.9726  16.9864  16.9945  16.9979  17.0124  17.0244  17.0343  17.0410
    17.0500  17.0729  17.1009  17.1270  17.1748  17.1857  17.1999  17.2092
    17.2172  17.2304  17.2370  17.2418  17.2537  17.2706  17.2718  17.2882
    17.2957  17.2981  17.3014  17.3217  17.3244  17.3409  17.3495  17.3634
    17.3797  17.3953  17.4012  17.4221  17.4269  17.4640  17.4728  17.4820
    17.4965  17.5073  17.5100  17.5273  17.5332  17.5421  17.5475  17.5622
    17.5665  17.5777  17.5878  17.5925  17.5999  17.6096  17.6130  17.6306
    17.6435  17.6599  17.6718  17.6785  17.6819  17.6915  17.7392  17.7448
    17.7664  17.7776  17.7863  17.8084  17.8207  17.8247  17.8335  17.8407
    17.8484  17.8689  17.8714  17.8913  17.8974  17.9016  17.9152  17.9226
    17.9299  17.9406  17.9452  17.9600  17.9714  17.9820  17.9896  17.9976
    18.0051  18.0160  18.0303  18.0350  18.0424  18.0552  18.0696  18.0834
    18.0945  18.0993  18.1049  18.1219  18.1320  18.1476  18.1516  18.1675
    18.1803  18.1890  18.1988  18.2102  18.3277  18.3403  18.3599  18.3736
    18.3929  18.4116  18.4310  18.4390  18.4573  18.4836  18.4995  18.5094
    18.5151  18.5256  18.5322  18.5516  18.5576  18.5678  18.5723  18.5815
    18.5843  18.5912  18.5951  18.6036  18.6075  18.6222  18.6369  18.6413
    18.6544  18.6670  18.6726  18.6888  18.7186  18.7462  18.7779  18.7826
    18.8275  18.8610  18.8852  18.8941  18.9328  18.9401  18.9483  18.9661
    18.9789  19.0042  19.0121  19.0136  19.0385  19.0462  19.0651  19.0825
    19.0871  19.0988  19.1088  19.1212  19.1913  19.2077  19.2423  19.2485
    19.2799  19.3106  19.3203  19.3367  19.3469  19.3546  19.3811  19.4044
    19.4394  19.4450  19.4531  19.4728  19.4835  19.4937  19.5068  19.5203
    19.5270  19.5391  19.5529  19.5596  19.5740  19.5862  19.5912  19.5976

     highest occupied, lowest unoccupied level (ev):     7.6727    8.7091

!    total energy              =  -38619.24467224 Ry
     estimated scf accuracy    <       0.00000195 Ry

     The total energy is the sum of the following terms:
     one-electron contribution =  -20365.90178965 Ry
     hartree contribution      =   12186.95079744 Ry
     xc contribution           =   -9605.59918656 Ry
     ewald contribution        =  -20830.39304633 Ry
     Hubbard energy            =      -4.30144715 Ry

     convergence has been achieved in  12 iterations

     Writing all to output data dir ./tmp_In0.0Ga1.0As0.75Sb0.25_cube_3x3x3.3/In0.0Ga1.0As0.75Sb0.25_cube_3x3x3.3.save/ :
     XML data file, charge density, pseudopotentials, collected wavefunctions

     init_run     :    218.67s CPU    220.95s WALL (       1 calls)
     electrons    :   8140.34s CPU   8160.21s WALL (       1 calls)

     Called by init_run:
     wfcinit      :    209.06s CPU    210.95s WALL (       1 calls)
     potinit      :      2.05s CPU      2.12s WALL (       1 calls)
     hinit0       :      1.70s CPU      1.73s WALL (       1 calls)

     Called by electrons:
     c_bands      :   7877.08s CPU   7895.89s WALL (      13 calls)
     sum_band     :    258.26s CPU    258.78s WALL (      13 calls)
     v_of_rho     :      3.35s CPU      3.46s WALL (      13 calls)
     mix_rho      :      0.71s CPU      0.72s WALL (      13 calls)

     Called by c_bands:
     init_us_2    :     29.22s CPU     29.70s WALL (      28 calls)
     cegterg      :   7542.40s CPU   7559.73s WALL (      13 calls)

     Called by *egterg:
     cdiaghg      :    687.41s CPU    688.00s WALL (      99 calls)
     h_psi        :   4496.35s CPU   4506.09s WALL (     101 calls)
     g_psi        :      3.84s CPU      3.84s WALL (      87 calls)

     Called by h_psi:
     h_psi:calbec :    794.82s CPU    794.89s WALL (     101 calls)
     vloc_psi     :    648.13s CPU    649.53s WALL (     101 calls)
     add_vuspsi   :    770.74s CPU    773.46s WALL (     101 calls)
     vhpsi        :   2275.10s CPU   2275.31s WALL (     101 calls)

     General routines
     calbec       :   1006.93s CPU   1007.02s WALL (     216 calls)
     fft          :      3.08s CPU      3.19s WALL (     131 calls)
     ffts         :      0.20s CPU      0.20s WALL (      13 calls)
     fftw         :    649.99s CPU    651.52s WALL (  160158 calls)

     Parallel routines

     Hubbard U routines
     new_ns       :     56.46s CPU     56.46s WALL (      13 calls)
     vhpsi        :   2275.10s CPU   2275.31s WALL (     101 calls)

     PWSCF        :      2h19m CPU      2h21m WALL


   This run was terminated on:  20:26:30  13Jun2025            

=------------------------------------------------------------------------------=
   JOB DONE.
=------------------------------------------------------------------------------=
