
     Program PWSCF v.7.3.1 starts on 14Jun2025 at  1: 9: 7 

     This program is part of the open-source Quantum ESPRESSO suite
     for quantum simulation of materials; please cite
         "P. Giannozzi et al., J. Phys.:Condens. Matter 21 395502 (2009);
         "P. Giannozzi et al., J. Phys.:Condens. Matter 29 465901 (2017);
         "P. Giannozzi et al., J. Chem. Phys. 152 154105 (2020);
          URL http://www.quantum-espresso.org", 
     in publications or presentations arising from this work. More details at
     http://www.quantum-espresso.org/quote

     Parallel version (MPI), running on   640 processors

     MPI processes distributed on     5 nodes
     433859 MiB available memory on the printing compute node when the environment starts

     Reading input from In0.0Ga1.0As0.75Sb0.25_cube_3x3x3.6.scf.in
Warning: card &CELL ignored
Warning: card   CELL_DOFREE = 'ALL', ignored
Warning: card / ignored

     Current dimensions of program PWSCF are:
     Max number of different atomic species (ntypx) = 10
     Max number of k-points (npk) =  40000
     Max angular momentum in pseudopotentials (lmaxx) =  4

     K-points division:     npool     =       8
     R & G space division:  proc/nbgrp/npool/nimage =      80
     Subspace diagonalization in iterative solution of the eigenvalue problem:
     one sub-group per band group will be used
     custom distributed-memory algorithm (size of sub-group:  8*  8 procs)


     Parallelization info
     --------------------
     sticks:   dense  smooth     PW     G-vecs:    dense   smooth      PW
     Min         515     515    132                78669    78669   10284
     Max         516     516    133                78675    78675   10289
     Sum       41201   41201  10605              6293725  6293725  822961

     Using Slab Decomposition



     bravais-lattice index     =            1
     lattice parameter (alat)  =      32.8470  a.u.
     unit-cell volume          =   35439.6097 (a.u.)^3
     number of atoms/cell      =          216
     number of atomic types    =            4
     number of electrons       =      3024.00
     number of Kohn-Sham states=         2160
     kinetic-energy cutoff     =     120.0000  Ry
     charge density cutoff     =     480.0000  Ry
     scf convergence threshold =      1.0E-05
     mixing beta               =       0.6500
     number of iterations used =            8  plain     mixing
     Exchange-correlation= PBE
                           (   1   4   3   4   0   0   0)
     Hubbard projectors: atomic
     Hubbard parameters of DFT+U (Dudarev formulation) in eV:
     U(As-4p) =  5.8400
     U(Ga-4p) = -3.2650
     U(In-5p) = -0.9725
     U(Sb-5p) =  4.8900

     Internal variables: lda_plus_u =T, lda_plus_u_kind = 0

     celldm(1)=  32.847045  celldm(2)=   0.000000  celldm(3)=   0.000000
     celldm(4)=   0.000000  celldm(5)=   0.000000  celldm(6)=   0.000000

     crystal axes: (cart. coord. in units of alat)
               a(1) = (   1.000000   0.000000   0.000000 )  
               a(2) = (   0.000000   1.000000   0.000000 )  
               a(3) = (   0.000000   0.000000   1.000000 )  

     reciprocal axes: (cart. coord. in units 2 pi/alat)
               b(1) = (  1.000000  0.000000  0.000000 )  
               b(2) = (  0.000000  1.000000  0.000000 )  
               b(3) = (  0.000000  0.000000  1.000000 )  


     PseudoPot. # 1 for As read from file:
     /work/i254/i254/gentles/data/pseudos/As.pbe.NC-SR.standard.v0.5.UPF
     MD5 check sum: bfe1a874457ce592347346129958e7cf
     Pseudo is Norm-conserving + core correction, Zval = 15.0
     Generated using ONCVPSP code by D. R. Hamann
     Using radial grid of 1358 points,  6 beta functions with: 
                l(1) =   0
                l(2) =   0
                l(3) =   1
                l(4) =   1
                l(5) =   2
                l(6) =   2

     PseudoPot. # 2 for Ga read from file:
     /work/i254/i254/gentles/data/pseudos/Ga.pbe.NC-SR.standard.v0.5.UPF
     MD5 check sum: 2bb81bf6f0a8d9832cf3329850435ecf
     Pseudo is Norm-conserving + core correction, Zval = 13.0
     Generated using ONCVPSP code by D. R. Hamann
     Using radial grid of 1902 points,  6 beta functions with: 
                l(1) =   0
                l(2) =   0
                l(3) =   1
                l(4) =   1
                l(5) =   2
                l(6) =   2

     PseudoPot. # 3 for In read from file:
     /work/i254/i254/gentles/data/pseudos/In.pbe.NC-SR.standard.v0.5.UPF
     MD5 check sum: 835f4bf908c982ff75c88e16816a8d7f
     Pseudo is Norm-conserving + core correction, Zval = 13.0
     Generated using ONCVPSP code by D. R. Hamann
     Using radial grid of 1964 points,  6 beta functions with: 
                l(1) =   0
                l(2) =   0
                l(3) =   1
                l(4) =   1
                l(5) =   2
                l(6) =   2

     PseudoPot. # 4 for Sb read from file:
     /work/i254/i254/gentles/data/pseudos/Sb.pbe.NC-SR.standard.v0.5.UPF
     MD5 check sum: 127f69b6101c45666faeae1b5d611565
     Pseudo is Norm-conserving + core correction, Zval = 15.0
     Generated using ONCVPSP code by D. R. Hamann
     Using radial grid of 1434 points,  6 beta functions with: 
                l(1) =   0
                l(2) =   0
                l(3) =   1
                l(4) =   1
                l(5) =   2
                l(6) =   2

     atomic species   valence    mass     pseudopotential
     As               15.00    74.92160     As( 1.00)
     Ga               13.00    69.72300     Ga( 1.00)
     In               13.00   114.81800     In( 1.00)
     Sb               15.00   121.76000     Sb( 1.00)

     No symmetry found



   Cartesian axes

     site n.     atom                  positions (alat units)
         1        Ga     tau(   1) = (  -0.0066450   0.0033040   0.0044130  )
         2        Ga     tau(   2) = (  -0.0077520   0.1622150   0.1614920  )
         3        Ga     tau(   3) = (   0.1595200   0.0025940   0.1715620  )
         4        Ga     tau(   4) = (   0.1650730   0.1658040  -0.0001400  )
         5        As     tau(   5) = (   0.0805450   0.0835190   0.0833010  )
         6        Sb     tau(   6) = (   0.0789870   0.2479350   0.2477710  )
         7        As     tau(   7) = (   0.2472620   0.0819880   0.2498980  )
         8        As     tau(   8) = (   0.2510460   0.2471550   0.0785790  )
         9        Ga     tau(   9) = (  -0.0024100  -0.0011340   0.3318720  )
        10        Ga     tau(  10) = (   0.0014160   0.1647470   0.4991900  )
        11        Ga     tau(  11) = (   0.1606480  -0.0049300   0.4972680  )
        12        Ga     tau(  12) = (   0.1645340   0.1586340   0.3340960  )
        13        As     tau(  13) = (   0.0800520   0.0790620   0.4159870  )
        14        As     tau(  14) = (   0.0827210   0.2462630   0.5843460  )
        15        Sb     tau(  15) = (   0.2496210   0.0825040   0.5843560  )
        16        Sb     tau(  16) = (   0.2503740   0.2484810   0.4195180  )
        17        Ga     tau(  17) = (  -0.0018140   0.0020650   0.6654910  )
        18        Ga     tau(  18) = (   0.0025510   0.1604890   0.8398610  )
        19        Ga     tau(  19) = (   0.1729330   0.0054490   0.8305730  )
        20        Ga     tau(  20) = (   0.1630550   0.1696070   0.6722880  )
        21        As     tau(  21) = (   0.0829370   0.0828080   0.7512580  )
        22        As     tau(  22) = (   0.0827230   0.2479140   0.9193610  )
        23        As     tau(  23) = (   0.2509620   0.0887090   0.9150420  )
        24        As     tau(  24) = (   0.2520330   0.2496490   0.7513990  )
        25        Ga     tau(  25) = (  -0.0020830   0.3315090   0.0002710  )
        26        Ga     tau(  26) = (   0.0043150   0.4938920   0.1703660  )
        27        Ga     tau(  27) = (   0.1665360   0.3302320   0.1561870  )
        28        Ga     tau(  28) = (   0.1674160   0.4995470  -0.0012290  )
        29        As     tau(  29) = (   0.0832270   0.4156290   0.0796730  )
        30        As     tau(  30) = (   0.0803740   0.5858460   0.2498230  )
        31        Sb     tau(  31) = (   0.2502770   0.4183090   0.2454140  )
        32        As     tau(  32) = (   0.2472830   0.5838320   0.0824740  )
        33        Ga     tau(  33) = (  -0.0104340   0.3326360   0.3348090  )
        34        Ga     tau(  34) = (  -0.0029740   0.5106810   0.4995370  )
        35        Ga     tau(  35) = (   0.1652120   0.3321730   0.5101330  )
        36        Ga     tau(  36) = (   0.1658850   0.5090870   0.3310270  )
        37        Sb     tau(  37) = (   0.0816660   0.4186700   0.4179510  )
        38        As     tau(  38) = (   0.0841500   0.5866140   0.5812660  )
        39        As     tau(  39) = (   0.2503030   0.4152990   0.5856610  )
        40        As     tau(  40) = (   0.2484600   0.5840780   0.4171030  )
        41        Ga     tau(  41) = (   0.0034280   0.3287470   0.6648400  )
        42        Ga     tau(  42) = (  -0.0023420   0.4984940   0.8430820  )
        43        Ga     tau(  43) = (   0.1716590   0.3273910   0.8395000  )
        44        Ga     tau(  44) = (   0.1707480   0.5049490   0.6616820  )
        45        Sb     tau(  45) = (   0.0874250   0.4168900   0.7526990  )
        46        As     tau(  46) = (   0.0844140   0.5813890   0.9176870  )
        47        As     tau(  47) = (   0.2507040   0.4139910   0.9187140  )
        48        As     tau(  48) = (   0.2491970   0.5818620   0.7502320  )
        49        Ga     tau(  49) = (   0.0083170   0.6664630   0.0013920  )
        50        Ga     tau(  50) = (  -0.0017900   0.8346050   0.1674340  )
        51        Ga     tau(  51) = (   0.1649650   0.6658050   0.1681600  )
        52        Ga     tau(  52) = (   0.1599630   0.8305680   0.0039010  )
        53        As     tau(  53) = (   0.0822570   0.7496580   0.0882730  )
        54        As     tau(  54) = (   0.0801410   0.9166690   0.2510040  )
        55        As     tau(  55) = (   0.2461700   0.7492460   0.2507330  )
        56        Sb     tau(  56) = (   0.2490180   0.9186480   0.0848590  )
        57        Ga     tau(  57) = (  -0.0018040   0.6710320   0.3313280  )
        58        Ga     tau(  58) = (  -0.0020530   0.8340100   0.4992480  )
        59        Ga     tau(  59) = (   0.1626840   0.6661380   0.4952090  )
        60        Ga     tau(  60) = (   0.1650520   0.8345990   0.3318010  )
        61        As     tau(  61) = (   0.0815150   0.7522670   0.4144920  )
        62        As     tau(  62) = (   0.0784800   0.9171630   0.5835940  )
        63        Sb     tau(  63) = (   0.2502760   0.7529360   0.5833570  )
        64        As     tau(  64) = (   0.2473250   0.9177660   0.4152470  )
        65        Ga     tau(  65) = (   0.0040310   0.6715120   0.6610540  )
        66        Ga     tau(  66) = (  -0.0016250   0.8346920   0.8238640  )
        67        Ga     tau(  67) = (   0.1610210   0.6605730   0.8284180  )
        68        Ga     tau(  68) = (   0.1624090   0.8399180   0.6691070  )
        69        As     tau(  69) = (   0.0832100   0.7509240   0.7470660  )
        70        Sb     tau(  70) = (   0.0808780   0.9203160   0.9146340  )
        71        Sb     tau(  71) = (   0.2477660   0.7470980   0.9157760  )
        72        As     tau(  72) = (   0.2503940   0.9185310   0.7495560  )
        73        Ga     tau(  73) = (   0.3339080   0.0095600  -0.0010750  )
        74        Ga     tau(  74) = (   0.3282680   0.1623480   0.1633030  )
        75        Ga     tau(  75) = (   0.5048230   0.0051060   0.1609500  )
        76        Ga     tau(  76) = (   0.5012740   0.1675450  -0.0021690  )
        77        As     tau(  77) = (   0.4184030   0.0871330   0.0816010  )
        78        Sb     tau(  78) = (   0.4189970   0.2460790   0.2487020  )
        79        As     tau(  79) = (   0.5878720   0.0844930   0.2467500  )
        80        As     tau(  80) = (   0.5855310   0.2476830   0.0789480  )
        81        Ga     tau(  81) = (   0.3288650   0.0042250   0.3371110  )
        82        Ga     tau(  82) = (   0.3443930   0.1671770   0.5023180  )
        83        Ga     tau(  83) = (   0.4983600   0.0034820   0.5062590  )
        84        Ga     tau(  84) = (   0.5060420   0.1595010   0.3365940  )
        85        As     tau(  85) = (   0.4190050   0.0818390   0.4183530  )
        86        As     tau(  86) = (   0.4205080   0.2518260   0.5865090  )
        87        As     tau(  87) = (   0.5823690   0.0857240   0.5862010  )
        88        As     tau(  88) = (   0.5835980   0.2461070   0.4190170  )
        89        Ga     tau(  89) = (   0.3372650  -0.0021640   0.6713760  )
        90        Ga     tau(  90) = (   0.3358570   0.1676150   0.8322170  )
        91        Ga     tau(  91) = (   0.5065870   0.0072760   0.8312230  )
        92        Ga     tau(  92) = (   0.5012210   0.1687930   0.6688680  )
        93        As     tau(  93) = (   0.4192320   0.0850420   0.7504280  )
        94        As     tau(  94) = (   0.4182160   0.2491880   0.9153650  )
        95        As     tau(  95) = (   0.5862210   0.0863810   0.9170380  )
        96        As     tau(  96) = (   0.5839090   0.2492080   0.7524600  )
        97        Ga     tau(  97) = (   0.3353550   0.3312510  -0.0028170  )
        98        Ga     tau(  98) = (   0.3352360   0.5003640   0.1549190  )
        99        Ga     tau(  99) = (   0.5005090   0.3307560   0.1546770  )
       100        Ga     tau( 100) = (   0.5071270   0.4948660   0.0010490  )
       101        As     tau( 101) = (   0.4180780   0.4147790   0.0768160  )
       102        Sb     tau( 102) = (   0.4162180   0.5858220   0.2490640  )
       103        Sb     tau( 103) = (   0.5847780   0.4145080   0.2456520  )
       104        As     tau( 104) = (   0.5874920   0.5833560   0.0812680  )
       105        Ga     tau( 105) = (   0.3377700   0.3364930   0.3362350  )
       106        Ga     tau( 106) = (   0.3276940   0.4945730   0.4975400  )
       107        Ga     tau( 107) = (   0.5026070   0.3323750   0.5028350  )
       108        Ga     tau( 108) = (   0.4964140   0.4942510   0.3374470  )
       109        As     tau( 109) = (   0.4173940   0.4142880   0.4218240  )
       110        Sb     tau( 110) = (   0.4150190   0.5793740   0.5858950  )
       111        As     tau( 111) = (   0.5853810   0.4130370   0.5879980  )
       112        Sb     tau( 112) = (   0.5847780   0.5853490   0.4170170  )
       113        Ga     tau( 113) = (   0.3345930   0.3327600   0.6678530  )
       114        Ga     tau( 114) = (   0.3292020   0.4937780   0.8302670  )
       115        Ga     tau( 115) = (   0.5005170   0.3316600   0.8346840  )
       116        Ga     tau( 116) = (   0.5045250   0.4940320   0.6727310  )
       117        As     tau( 117) = (   0.4171380   0.4131240   0.7517110  )
       118        Sb     tau( 118) = (   0.4191190   0.5815210   0.9151370  )
       119        As     tau( 119) = (   0.5849440   0.4127610   0.9169620  )
       120        As     tau( 120) = (   0.5850720   0.5819230   0.7523720  )
       121        Ga     tau( 121) = (   0.3349750   0.6656700   0.0070190  )
       122        Ga     tau( 122) = (   0.3338370   0.8254000   0.1673410  )
       123        Ga     tau( 123) = (   0.5086670   0.6687200   0.1635510  )
       124        Ga     tau( 124) = (   0.5048920   0.8308460   0.0036000  )
       125        As     tau( 125) = (   0.4209220   0.7481950   0.0850590  )
       126        Sb     tau( 126) = (   0.4176690   0.9183980   0.2494820  )
       127        As     tau( 127) = (   0.5885390   0.7507610   0.2472760  )
       128        As     tau( 128) = (   0.5863210   0.9186820   0.0821060  )
       129        Ga     tau( 129) = (   0.3268980   0.6713380   0.3371590  )
       130        Ga     tau( 130) = (   0.3367020   0.8413220   0.4965200  )
       131        Ga     tau( 131) = (   0.4922870   0.6722850   0.4967700  )
       132        Ga     tau( 132) = (   0.5022390   0.8258250   0.3313160  )
       133        As     tau( 133) = (   0.4128940   0.7540130   0.4144260  )
       134        As     tau( 134) = (   0.4172500   0.9194300   0.5852590  )
       135        Sb     tau( 135) = (   0.5839770   0.7509900   0.5853070  )
       136        Sb     tau( 136) = (   0.5850490   0.9183140   0.4156990  )
       137        Ga     tau( 137) = (   0.3343420   0.6675050   0.6765130  )
       138        Ga     tau( 138) = (   0.3325320   0.8339010   0.8274240  )
       139        Ga     tau( 139) = (   0.5057730   0.6722250   0.8305780  )
       140        Ga     tau( 140) = (   0.4981660   0.8398980   0.6703920  )
       141        As     tau( 141) = (   0.4194610   0.7529230   0.7507070  )
       142        Sb     tau( 142) = (   0.4194850   0.9190220   0.9157970  )
       143        As     tau( 143) = (   0.5871730   0.7515020   0.9170520  )
       144        As     tau( 144) = (   0.5834680   0.9194650   0.7522530  )
       145        Ga     tau( 145) = (   0.6675620   0.0019080  -0.0014430  )
       146        Ga     tau( 146) = (   0.6684660   0.1669370   0.1638120  )
       147        Ga     tau( 147) = (   0.8320130   0.0001350   0.1670820  )
       148        Ga     tau( 148) = (   0.8309030   0.1675990  -0.0011190  )
       149        As     tau( 149) = (   0.7502650   0.0831620   0.0822080  )
       150        As     tau( 150) = (   0.7523470   0.2469930   0.2471490  )
       151        As     tau( 151) = (   0.9143190   0.0808080   0.2488630  )
       152        As     tau( 152) = (   0.9131570   0.2496980   0.0816460  )
       153        Ga     tau( 153) = (   0.6724460   0.0040490   0.3275910  )
       154        Ga     tau( 154) = (   0.6660040   0.1644580   0.5010580  )
       155        Ga     tau( 155) = (   0.8387820   0.0050350   0.4944440  )
       156        Ga     tau( 156) = (   0.8337260   0.1645640   0.3308560  )
       157        As     tau( 157) = (   0.7510500   0.0853750   0.4148740  )
       158        As     tau( 158) = (   0.7471190   0.2451010   0.5847940  )
       159        As     tau( 159) = (   0.9176460   0.0845540   0.5813860  )
       160        As     tau( 160) = (   0.9157730   0.2434610   0.4161560  )
       161        Ga     tau( 161) = (   0.6624390   0.0034440   0.6710030  )
       162        Ga     tau( 162) = (   0.6682200   0.1683020   0.8346380  )
       163        Ga     tau( 163) = (   0.8328040   0.0001910   0.8338550  )
       164        Ga     tau( 164) = (   0.8279780   0.1596400   0.6635520  )
       165        As     tau( 165) = (   0.7481190   0.0823390   0.7522640  )
       166        As     tau( 166) = (   0.7492140   0.2505870   0.9173920  )
       167        As     tau( 167) = (   0.9133900   0.0830800   0.9190940  )
       168        Sb     tau( 168) = (   0.9142450   0.2457140   0.7520590  )
       169        Ga     tau( 169) = (   0.6670520   0.3311520  -0.0005800  )
       170        Ga     tau( 170) = (   0.6735360   0.5049440   0.1625460  )
       171        Ga     tau( 171) = (   0.8320080   0.3334690   0.1652030  )
       172        Ga     tau( 172) = (   0.8288650   0.4952440  -0.0026120  )
       173        As     tau( 173) = (   0.7490370   0.4147380   0.0819850  )
       174        As     tau( 174) = (   0.7540420   0.5868720   0.2467450  )
       175        As     tau( 175) = (   0.9147050   0.4159960   0.2487620  )
       176        Sb     tau( 176) = (   0.9165810   0.5818560   0.0846450  )
       177        Ga     tau( 177) = (   0.6666730   0.3223200   0.3315170  )
       178        Ga     tau( 178) = (   0.6669220   0.5000490   0.5104380  )
       179        Ga     tau( 179) = (   0.8323780   0.3205200   0.4996360  )
       180        Ga     tau( 180) = (   0.8372630   0.5052050   0.3284380  )
       181        Sb     tau( 181) = (   0.7504700   0.4152300   0.4159350  )
       182        As     tau( 182) = (   0.7513360   0.5846710   0.5858120  )
       183        Sb     tau( 183) = (   0.9141690   0.4153730   0.5820770  )
       184        As     tau( 184) = (   0.9160740   0.5888820   0.4138550  )
       185        Ga     tau( 185) = (   0.6667020   0.3295340   0.6692710  )
       186        Ga     tau( 186) = (   0.6636070   0.4984110   0.8358170  )
       187        Ga     tau( 187) = (   0.8285360   0.3360830   0.8367740  )
       188        Ga     tau( 188) = (   0.8246720   0.4973730   0.6695490  )
       189        As     tau( 189) = (   0.7447230   0.4154470   0.7529800  )
       190        As     tau( 190) = (   0.7460970   0.5801940   0.9178750  )
       191        As     tau( 191) = (   0.9139390   0.4138780   0.9191640  )
       192        Sb     tau( 192) = (   0.9158330   0.5850650   0.7508500  )
       193        Ga     tau( 193) = (   0.6678380   0.6669500  -0.0006900  )
       194        Ga     tau( 194) = (   0.6673540   0.8371410   0.1667600  )
       195        Ga     tau( 195) = (   0.8313270   0.6748260   0.1680610  )
       196        Ga     tau( 196) = (   0.8289610   0.8398700   0.0052180  )
       197        As     tau( 197) = (   0.7473870   0.7533930   0.0836760  )
       198        As     tau( 198) = (   0.7519720   0.9170010   0.2491820  )
       199        As     tau( 199) = (   0.9160160   0.7541930   0.2499700  )
       200        As     tau( 200) = (   0.9147470   0.9184930   0.0866820  )
       201        Ga     tau( 201) = (   0.6733640   0.6695640   0.3277270  )
       202        Ga     tau( 202) = (   0.6746590   0.8294340   0.4950060  )
       203        Ga     tau( 203) = (   0.8335270   0.6670360   0.4992760  )
       204        Ga     tau( 204) = (   0.8351280   0.8357820   0.3329790  )
       205        As     tau( 205) = (   0.7552870   0.7489850   0.4129160  )
       206        Sb     tau( 206) = (   0.7536290   0.9194210   0.5842040  )
       207        As     tau( 207) = (   0.9166000   0.7501940   0.5815120  )
       208        As     tau( 208) = (   0.9173100   0.9174680   0.4152170  )
       209        Ga     tau( 209) = (   0.6701600   0.6628320   0.6716840  )
       210        Ga     tau( 210) = (   0.6671850   0.8364100   0.8342330  )
       211        Ga     tau( 211) = (   0.8232770   0.6666290   0.8367180  )
       212        Ga     tau( 212) = (   0.8371100   0.8298520   0.6707280  )
       213        As     tau( 213) = (   0.7481840   0.7514190   0.7523960  )
       214        As     tau( 214) = (   0.7496440   0.9193110   0.9167400  )
       215        Sb     tau( 215) = (   0.9154180   0.7522500   0.9186490  )
       216        As     tau( 216) = (   0.9156850   0.9193970   0.7479760  )

     number of k points=     8
                       cart. coord. in units 2pi/alat
        k(    1) = (   0.0000000   0.0000000   0.0000000), wk =   0.2500000
        k(    2) = (   0.0000000   0.0000000  -0.5000000), wk =   0.2500000
        k(    3) = (   0.0000000  -0.5000000  -0.5000000), wk =   0.2500000
        k(    4) = (  -0.5000000  -0.5000000  -0.5000000), wk =   0.2500000
        k(    5) = (  -0.5000000   0.0000000   0.0000000), wk =   0.2500000
        k(    6) = (   0.0000000  -0.5000000   0.0000000), wk =   0.2500000
        k(    7) = (  -0.5000000   0.0000000   0.5000000), wk =   0.2500000
        k(    8) = (  -0.5000000   0.5000000   0.0000000), wk =   0.2500000

     Dense  grid:  6293725 G-vectors     FFT dimensions: ( 240, 240, 240)

     Estimated max dynamical RAM per process >       2.44 GB

     Estimated total dynamical RAM >    1552.82 GB

     Initial potential from superposition of free atoms

     starting charge    3023.6766, renormalised to    3024.0000

     STARTING HUBBARD OCCUPATIONS:

     =================== HUBBARD OCCUPATIONS ===================
     ------------------------ ATOM    1 ------------------------
     Tr[ns(  1)] =   1.00000
     eigenvalues:
       0.167  0.167  0.167
     eigenvectors (columns):
       1.000  0.000  0.000
       0.000  1.000  0.000
       0.000  0.000  1.000
     occupation matrix ns (before diag.):
       0.167  0.000  0.000
       0.000  0.167  0.000
       0.000  0.000  0.167
     ------------------------ ATOM    2 ------------------------
     Tr[ns(  2)] =   1.00000
     eigenvalues:
       0.167  0.167  0.167
     eigenvectors (columns):
       1.000  0.000  0.000
       0.000  1.000  0.000
       0.000  0.000  1.000
     occupation matrix ns (before diag.):
       0.167  0.000  0.000
       0.000  0.167  0.000
       0.000  0.000  0.167
     ------------------------ ATOM    3 ------------------------
     Tr[ns(  3)] =   1.00000
     eigenvalues:
       0.167  0.167  0.167
     eigenvectors (columns):
       1.000  0.000  0.000
       0.000  1.000  0.000
       0.000  0.000  1.000
     occupation matrix ns (before diag.):
       0.167  0.000  0.000
       0.000  0.167  0.000
       0.000  0.000  0.167
     ------------------------ ATOM    4 ------------------------
     Tr[ns(  4)] =   1.00000
     eigenvalues:
       0.167  0.167  0.167
     eigenvectors (columns):
       1.000  0.000  0.000
       0.000  1.000  0.000
       0.000  0.000  1.000
     occupation matrix ns (before diag.):
       0.167  0.000  0.000
       0.000  0.167  0.000
       0.000  0.000  0.167
     ------------------------ ATOM    5 ------------------------
     Tr[ns(  5)] =   3.00000
     eigenvalues:
       0.500  0.500  0.500
     eigenvectors (columns):
       1.000  0.000  0.000
       0.000  1.000  0.000
       0.000  0.000  1.000
     occupation matrix ns (before diag.):
       0.500  0.000  0.000
       0.000  0.500  0.000
       0.000  0.000  0.500
     ------------------------ ATOM    6 ------------------------
     Tr[ns(  6)] =   3.00000
     eigenvalues:
       0.500  0.500  0.500
     eigenvectors (columns):
       1.000  0.000  0.000
       0.000  1.000  0.000
       0.000  0.000  1.000
     occupation matrix ns (before diag.):
       0.500  0.000  0.000
       0.000  0.500  0.000
       0.000  0.000  0.500
     ------------------------ ATOM    7 ------------------------
     Tr[ns(  7)] =   3.00000
     eigenvalues:
       0.500  0.500  0.500
     eigenvectors (columns):
       1.000  0.000  0.000
       0.000  1.000  0.000
       0.000  0.000  1.000
     occupation matrix ns (before diag.):
       0.500  0.000  0.000
       0.000  0.500  0.000
       0.000  0.000  0.500
     ------------------------ ATOM    8 ------------------------
     Tr[ns(  8)] =   3.00000
     eigenvalues:
       0.500  0.500  0.500
     eigenvectors (columns):
       1.000  0.000  0.000
       0.000  1.000  0.000
       0.000  0.000  1.000
     occupation matrix ns (before diag.):
       0.500  0.000  0.000
       0.000  0.500  0.000
       0.000  0.000  0.500
     ------------------------ ATOM    9 ------------------------
     Tr[ns(  9)] =   1.00000
     eigenvalues:
       0.167  0.167  0.167
     eigenvectors (columns):
       1.000  0.000  0.000
       0.000  1.000  0.000
       0.000  0.000  1.000
     occupation matrix ns (before diag.):
       0.167  0.000  0.000
       0.000  0.167  0.000
       0.000  0.000  0.167
     ------------------------ ATOM   10 ------------------------
     Tr[ns( 10)] =   1.00000
     eigenvalues:
       0.167  0.167  0.167
     eigenvectors (columns):
       1.000  0.000  0.000
       0.000  1.000  0.000
       0.000  0.000  1.000
     occupation matrix ns (before diag.):
       0.167  0.000  0.000
       0.000  0.167  0.000
       0.000  0.000  0.167
     ------------------------ ATOM   11 ------------------------
     Tr[ns( 11)] =   1.00000
     eigenvalues:
       0.167  0.167  0.167
     eigenvectors (columns):
       1.000  0.000  0.000
       0.000  1.000  0.000
       0.000  0.000  1.000
     occupation matrix ns (before diag.):
       0.167  0.000  0.000
       0.000  0.167  0.000
       0.000  0.000  0.167
     ------------------------ ATOM   12 ------------------------
     Tr[ns( 12)] =   1.00000
     eigenvalues:
       0.167  0.167  0.167
     eigenvectors (columns):
       1.000  0.000  0.000
       0.000  1.000  0.000
       0.000  0.000  1.000
     occupation matrix ns (before diag.):
       0.167  0.000  0.000
       0.000  0.167  0.000
       0.000  0.000  0.167
     ------------------------ ATOM   13 ------------------------
     Tr[ns( 13)] =   3.00000
     eigenvalues:
       0.500  0.500  0.500
     eigenvectors (columns):
       1.000  0.000  0.000
       0.000  1.000  0.000
       0.000  0.000  1.000
     occupation matrix ns (before diag.):
       0.500  0.000  0.000
       0.000  0.500  0.000
       0.000  0.000  0.500
     ------------------------ ATOM   14 ------------------------
     Tr[ns( 14)] =   3.00000
     eigenvalues:
       0.500  0.500  0.500
     eigenvectors (columns):
       1.000  0.000  0.000
       0.000  1.000  0.000
       0.000  0.000  1.000
     occupation matrix ns (before diag.):
       0.500  0.000  0.000
       0.000  0.500  0.000
       0.000  0.000  0.500
     ------------------------ ATOM   15 ------------------------
     Tr[ns( 15)] =   3.00000
     eigenvalues:
       0.500  0.500  0.500
     eigenvectors (columns):
       1.000  0.000  0.000
       0.000  1.000  0.000
       0.000  0.000  1.000
     occupation matrix ns (before diag.):
       0.500  0.000  0.000
       0.000  0.500  0.000
       0.000  0.000  0.500
     ------------------------ ATOM   16 ------------------------
     Tr[ns( 16)] =   3.00000
     eigenvalues:
       0.500  0.500  0.500
     eigenvectors (columns):
       1.000  0.000  0.000
       0.000  1.000  0.000
       0.000  0.000  1.000
     occupation matrix ns (before diag.):
       0.500  0.000  0.000
       0.000  0.500  0.000
       0.000  0.000  0.500
     ------------------------ ATOM   17 ------------------------
     Tr[ns( 17)] =   1.00000
     eigenvalues:
       0.167  0.167  0.167
     eigenvectors (columns):
       1.000  0.000  0.000
       0.000  1.000  0.000
       0.000  0.000  1.000
     occupation matrix ns (before diag.):
       0.167  0.000  0.000
       0.000  0.167  0.000
       0.000  0.000  0.167
     ------------------------ ATOM   18 ------------------------
     Tr[ns( 18)] =   1.00000
     eigenvalues:
       0.167  0.167  0.167
     eigenvectors (columns):
       1.000  0.000  0.000
       0.000  1.000  0.000
       0.000  0.000  1.000
     occupation matrix ns (before diag.):
       0.167  0.000  0.000
       0.000  0.167  0.000
       0.000  0.000  0.167
     ------------------------ ATOM   19 ------------------------
     Tr[ns( 19)] =   1.00000
     eigenvalues:
       0.167  0.167  0.167
     eigenvectors (columns):
       1.000  0.000  0.000
       0.000  1.000  0.000
       0.000  0.000  1.000
     occupation matrix ns (before diag.):
       0.167  0.000  0.000
       0.000  0.167  0.000
       0.000  0.000  0.167
     ------------------------ ATOM   20 ------------------------
     Tr[ns( 20)] =   1.00000
     eigenvalues:
       0.167  0.167  0.167
     eigenvectors (columns):
       1.000  0.000  0.000
       0.000  1.000  0.000
       0.000  0.000  1.000
     occupation matrix ns (before diag.):
       0.167  0.000  0.000
       0.000  0.167  0.000
       0.000  0.000  0.167
     ------------------------ ATOM   21 ------------------------
     Tr[ns( 21)] =   3.00000
     eigenvalues:
       0.500  0.500  0.500
     eigenvectors (columns):
       1.000  0.000  0.000
       0.000  1.000  0.000
       0.000  0.000  1.000
     occupation matrix ns (before diag.):
       0.500  0.000  0.000
       0.000  0.500  0.000
       0.000  0.000  0.500
     ------------------------ ATOM   22 ------------------------
     Tr[ns( 22)] =   3.00000
     eigenvalues:
       0.500  0.500  0.500
     eigenvectors (columns):
       1.000  0.000  0.000
       0.000  1.000  0.000
       0.000  0.000  1.000
     occupation matrix ns (before diag.):
       0.500  0.000  0.000
       0.000  0.500  0.000
       0.000  0.000  0.500
     ------------------------ ATOM   23 ------------------------
     Tr[ns( 23)] =   3.00000
     eigenvalues:
       0.500  0.500  0.500
     eigenvectors (columns):
       1.000  0.000  0.000
       0.000  1.000  0.000
       0.000  0.000  1.000
     occupation matrix ns (before diag.):
       0.500  0.000  0.000
       0.000  0.500  0.000
       0.000  0.000  0.500
     ------------------------ ATOM   24 ------------------------
     Tr[ns( 24)] =   3.00000
     eigenvalues:
       0.500  0.500  0.500
     eigenvectors (columns):
       1.000  0.000  0.000
       0.000  1.000  0.000
       0.000  0.000  1.000
     occupation matrix ns (before diag.):
       0.500  0.000  0.000
       0.000  0.500  0.000
       0.000  0.000  0.500
     ------------------------ ATOM   25 ------------------------
     Tr[ns( 25)] =   1.00000
     eigenvalues:
       0.167  0.167  0.167
     eigenvectors (columns):
       1.000  0.000  0.000
       0.000  1.000  0.000
       0.000  0.000  1.000
     occupation matrix ns (before diag.):
       0.167  0.000  0.000
       0.000  0.167  0.000
       0.000  0.000  0.167
     ------------------------ ATOM   26 ------------------------
     Tr[ns( 26)] =   1.00000
     eigenvalues:
       0.167  0.167  0.167
     eigenvectors (columns):
       1.000  0.000  0.000
       0.000  1.000  0.000
       0.000  0.000  1.000
     occupation matrix ns (before diag.):
       0.167  0.000  0.000
       0.000  0.167  0.000
       0.000  0.000  0.167
     ------------------------ ATOM   27 ------------------------
     Tr[ns( 27)] =   1.00000
     eigenvalues:
       0.167  0.167  0.167
     eigenvectors (columns):
       1.000  0.000  0.000
       0.000  1.000  0.000
       0.000  0.000  1.000
     occupation matrix ns (before diag.):
       0.167  0.000  0.000
       0.000  0.167  0.000
       0.000  0.000  0.167
     ------------------------ ATOM   28 ------------------------
     Tr[ns( 28)] =   1.00000
     eigenvalues:
       0.167  0.167  0.167
     eigenvectors (columns):
       1.000  0.000  0.000
       0.000  1.000  0.000
       0.000  0.000  1.000
     occupation matrix ns (before diag.):
       0.167  0.000  0.000
       0.000  0.167  0.000
       0.000  0.000  0.167
     ------------------------ ATOM   29 ------------------------
     Tr[ns( 29)] =   3.00000
     eigenvalues:
       0.500  0.500  0.500
     eigenvectors (columns):
       1.000  0.000  0.000
       0.000  1.000  0.000
       0.000  0.000  1.000
     occupation matrix ns (before diag.):
       0.500  0.000  0.000
       0.000  0.500  0.000
       0.000  0.000  0.500
     ------------------------ ATOM   30 ------------------------
     Tr[ns( 30)] =   3.00000
     eigenvalues:
       0.500  0.500  0.500
     eigenvectors (columns):
       1.000  0.000  0.000
       0.000  1.000  0.000
       0.000  0.000  1.000
     occupation matrix ns (before diag.):
       0.500  0.000  0.000
       0.000  0.500  0.000
       0.000  0.000  0.500
     ------------------------ ATOM   31 ------------------------
     Tr[ns( 31)] =   3.00000
     eigenvalues:
       0.500  0.500  0.500
     eigenvectors (columns):
       1.000  0.000  0.000
       0.000  1.000  0.000
       0.000  0.000  1.000
     occupation matrix ns (before diag.):
       0.500  0.000  0.000
       0.000  0.500  0.000
       0.000  0.000  0.500
     ------------------------ ATOM   32 ------------------------
     Tr[ns( 32)] =   3.00000
     eigenvalues:
       0.500  0.500  0.500
     eigenvectors (columns):
       1.000  0.000  0.000
       0.000  1.000  0.000
       0.000  0.000  1.000
     occupation matrix ns (before diag.):
       0.500  0.000  0.000
       0.000  0.500  0.000
       0.000  0.000  0.500
     ------------------------ ATOM   33 ------------------------
     Tr[ns( 33)] =   1.00000
     eigenvalues:
       0.167  0.167  0.167
     eigenvectors (columns):
       1.000  0.000  0.000
       0.000  1.000  0.000
       0.000  0.000  1.000
     occupation matrix ns (before diag.):
       0.167  0.000  0.000
       0.000  0.167  0.000
       0.000  0.000  0.167
     ------------------------ ATOM   34 ------------------------
     Tr[ns( 34)] =   1.00000
     eigenvalues:
       0.167  0.167  0.167
     eigenvectors (columns):
       1.000  0.000  0.000
       0.000  1.000  0.000
       0.000  0.000  1.000
     occupation matrix ns (before diag.):
       0.167  0.000  0.000
       0.000  0.167  0.000
       0.000  0.000  0.167
     ------------------------ ATOM   35 ------------------------
     Tr[ns( 35)] =   1.00000
     eigenvalues:
       0.167  0.167  0.167
     eigenvectors (columns):
       1.000  0.000  0.000
       0.000  1.000  0.000
       0.000  0.000  1.000
     occupation matrix ns (before diag.):
       0.167  0.000  0.000
       0.000  0.167  0.000
       0.000  0.000  0.167
     ------------------------ ATOM   36 ------------------------
     Tr[ns( 36)] =   1.00000
     eigenvalues:
       0.167  0.167  0.167
     eigenvectors (columns):
       1.000  0.000  0.000
       0.000  1.000  0.000
       0.000  0.000  1.000
     occupation matrix ns (before diag.):
       0.167  0.000  0.000
       0.000  0.167  0.000
       0.000  0.000  0.167
     ------------------------ ATOM   37 ------------------------
     Tr[ns( 37)] =   3.00000
     eigenvalues:
       0.500  0.500  0.500
     eigenvectors (columns):
       1.000  0.000  0.000
       0.000  1.000  0.000
       0.000  0.000  1.000
     occupation matrix ns (before diag.):
       0.500  0.000  0.000
       0.000  0.500  0.000
       0.000  0.000  0.500
     ------------------------ ATOM   38 ------------------------
     Tr[ns( 38)] =   3.00000
     eigenvalues:
       0.500  0.500  0.500
     eigenvectors (columns):
       1.000  0.000  0.000
       0.000  1.000  0.000
       0.000  0.000  1.000
     occupation matrix ns (before diag.):
       0.500  0.000  0.000
       0.000  0.500  0.000
       0.000  0.000  0.500
     ------------------------ ATOM   39 ------------------------
     Tr[ns( 39)] =   3.00000
     eigenvalues:
       0.500  0.500  0.500
     eigenvectors (columns):
       1.000  0.000  0.000
       0.000  1.000  0.000
       0.000  0.000  1.000
     occupation matrix ns (before diag.):
       0.500  0.000  0.000
       0.000  0.500  0.000
       0.000  0.000  0.500
     ------------------------ ATOM   40 ------------------------
     Tr[ns( 40)] =   3.00000
     eigenvalues:
       0.500  0.500  0.500
     eigenvectors (columns):
       1.000  0.000  0.000
       0.000  1.000  0.000
       0.000  0.000  1.000
     occupation matrix ns (before diag.):
       0.500  0.000  0.000
       0.000  0.500  0.000
       0.000  0.000  0.500
     ------------------------ ATOM   41 ------------------------
     Tr[ns( 41)] =   1.00000
     eigenvalues:
       0.167  0.167  0.167
     eigenvectors (columns):
       1.000  0.000  0.000
       0.000  1.000  0.000
       0.000  0.000  1.000
     occupation matrix ns (before diag.):
       0.167  0.000  0.000
       0.000  0.167  0.000
       0.000  0.000  0.167
     ------------------------ ATOM   42 ------------------------
     Tr[ns( 42)] =   1.00000
     eigenvalues:
       0.167  0.167  0.167
     eigenvectors (columns):
       1.000  0.000  0.000
       0.000  1.000  0.000
       0.000  0.000  1.000
     occupation matrix ns (before diag.):
       0.167  0.000  0.000
       0.000  0.167  0.000
       0.000  0.000  0.167
     ------------------------ ATOM   43 ------------------------
     Tr[ns( 43)] =   1.00000
     eigenvalues:
       0.167  0.167  0.167
     eigenvectors (columns):
       1.000  0.000  0.000
       0.000  1.000  0.000
       0.000  0.000  1.000
     occupation matrix ns (before diag.):
       0.167  0.000  0.000
       0.000  0.167  0.000
       0.000  0.000  0.167
     ------------------------ ATOM   44 ------------------------
     Tr[ns( 44)] =   1.00000
     eigenvalues:
       0.167  0.167  0.167
     eigenvectors (columns):
       1.000  0.000  0.000
       0.000  1.000  0.000
       0.000  0.000  1.000
     occupation matrix ns (before diag.):
       0.167  0.000  0.000
       0.000  0.167  0.000
       0.000  0.000  0.167
     ------------------------ ATOM   45 ------------------------
     Tr[ns( 45)] =   3.00000
     eigenvalues:
       0.500  0.500  0.500
     eigenvectors (columns):
       1.000  0.000  0.000
       0.000  1.000  0.000
       0.000  0.000  1.000
     occupation matrix ns (before diag.):
       0.500  0.000  0.000
       0.000  0.500  0.000
       0.000  0.000  0.500
     ------------------------ ATOM   46 ------------------------
     Tr[ns( 46)] =   3.00000
     eigenvalues:
       0.500  0.500  0.500
     eigenvectors (columns):
       1.000  0.000  0.000
       0.000  1.000  0.000
       0.000  0.000  1.000
     occupation matrix ns (before diag.):
       0.500  0.000  0.000
       0.000  0.500  0.000
       0.000  0.000  0.500
     ------------------------ ATOM   47 ------------------------
     Tr[ns( 47)] =   3.00000
     eigenvalues:
       0.500  0.500  0.500
     eigenvectors (columns):
       1.000  0.000  0.000
       0.000  1.000  0.000
       0.000  0.000  1.000
     occupation matrix ns (before diag.):
       0.500  0.000  0.000
       0.000  0.500  0.000
       0.000  0.000  0.500
     ------------------------ ATOM   48 ------------------------
     Tr[ns( 48)] =   3.00000
     eigenvalues:
       0.500  0.500  0.500
     eigenvectors (columns):
       1.000  0.000  0.000
       0.000  1.000  0.000
       0.000  0.000  1.000
     occupation matrix ns (before diag.):
       0.500  0.000  0.000
       0.000  0.500  0.000
       0.000  0.000  0.500
     ------------------------ ATOM   49 ------------------------
     Tr[ns( 49)] =   1.00000
     eigenvalues:
       0.167  0.167  0.167
     eigenvectors (columns):
       1.000  0.000  0.000
       0.000  1.000  0.000
       0.000  0.000  1.000
     occupation matrix ns (before diag.):
       0.167  0.000  0.000
       0.000  0.167  0.000
       0.000  0.000  0.167
     ------------------------ ATOM   50 ------------------------
     Tr[ns( 50)] =   1.00000
     eigenvalues:
       0.167  0.167  0.167
     eigenvectors (columns):
       1.000  0.000  0.000
       0.000  1.000  0.000
       0.000  0.000  1.000
     occupation matrix ns (before diag.):
       0.167  0.000  0.000
       0.000  0.167  0.000
       0.000  0.000  0.167
     ------------------------ ATOM   51 ------------------------
     Tr[ns( 51)] =   1.00000
     eigenvalues:
       0.167  0.167  0.167
     eigenvectors (columns):
       1.000  0.000  0.000
       0.000  1.000  0.000
       0.000  0.000  1.000
     occupation matrix ns (before diag.):
       0.167  0.000  0.000
       0.000  0.167  0.000
       0.000  0.000  0.167
     ------------------------ ATOM   52 ------------------------
     Tr[ns( 52)] =   1.00000
     eigenvalues:
       0.167  0.167  0.167
     eigenvectors (columns):
       1.000  0.000  0.000
       0.000  1.000  0.000
       0.000  0.000  1.000
     occupation matrix ns (before diag.):
       0.167  0.000  0.000
       0.000  0.167  0.000
       0.000  0.000  0.167
     ------------------------ ATOM   53 ------------------------
     Tr[ns( 53)] =   3.00000
     eigenvalues:
       0.500  0.500  0.500
     eigenvectors (columns):
       1.000  0.000  0.000
       0.000  1.000  0.000
       0.000  0.000  1.000
     occupation matrix ns (before diag.):
       0.500  0.000  0.000
       0.000  0.500  0.000
       0.000  0.000  0.500
     ------------------------ ATOM   54 ------------------------
     Tr[ns( 54)] =   3.00000
     eigenvalues:
       0.500  0.500  0.500
     eigenvectors (columns):
       1.000  0.000  0.000
       0.000  1.000  0.000
       0.000  0.000  1.000
     occupation matrix ns (before diag.):
       0.500  0.000  0.000
       0.000  0.500  0.000
       0.000  0.000  0.500
     ------------------------ ATOM   55 ------------------------
     Tr[ns( 55)] =   3.00000
     eigenvalues:
       0.500  0.500  0.500
     eigenvectors (columns):
       1.000  0.000  0.000
       0.000  1.000  0.000
       0.000  0.000  1.000
     occupation matrix ns (before diag.):
       0.500  0.000  0.000
       0.000  0.500  0.000
       0.000  0.000  0.500
     ------------------------ ATOM   56 ------------------------
     Tr[ns( 56)] =   3.00000
     eigenvalues:
       0.500  0.500  0.500
     eigenvectors (columns):
       1.000  0.000  0.000
       0.000  1.000  0.000
       0.000  0.000  1.000
     occupation matrix ns (before diag.):
       0.500  0.000  0.000
       0.000  0.500  0.000
       0.000  0.000  0.500
     ------------------------ ATOM   57 ------------------------
     Tr[ns( 57)] =   1.00000
     eigenvalues:
       0.167  0.167  0.167
     eigenvectors (columns):
       1.000  0.000  0.000
       0.000  1.000  0.000
       0.000  0.000  1.000
     occupation matrix ns (before diag.):
       0.167  0.000  0.000
       0.000  0.167  0.000
       0.000  0.000  0.167
     ------------------------ ATOM   58 ------------------------
     Tr[ns( 58)] =   1.00000
     eigenvalues:
       0.167  0.167  0.167
     eigenvectors (columns):
       1.000  0.000  0.000
       0.000  1.000  0.000
       0.000  0.000  1.000
     occupation matrix ns (before diag.):
       0.167  0.000  0.000
       0.000  0.167  0.000
       0.000  0.000  0.167
     ------------------------ ATOM   59 ------------------------
     Tr[ns( 59)] =   1.00000
     eigenvalues:
       0.167  0.167  0.167
     eigenvectors (columns):
       1.000  0.000  0.000
       0.000  1.000  0.000
       0.000  0.000  1.000
     occupation matrix ns (before diag.):
       0.167  0.000  0.000
       0.000  0.167  0.000
       0.000  0.000  0.167
     ------------------------ ATOM   60 ------------------------
     Tr[ns( 60)] =   1.00000
     eigenvalues:
       0.167  0.167  0.167
     eigenvectors (columns):
       1.000  0.000  0.000
       0.000  1.000  0.000
       0.000  0.000  1.000
     occupation matrix ns (before diag.):
       0.167  0.000  0.000
       0.000  0.167  0.000
       0.000  0.000  0.167
     ------------------------ ATOM   61 ------------------------
     Tr[ns( 61)] =   3.00000
     eigenvalues:
       0.500  0.500  0.500
     eigenvectors (columns):
       1.000  0.000  0.000
       0.000  1.000  0.000
       0.000  0.000  1.000
     occupation matrix ns (before diag.):
       0.500  0.000  0.000
       0.000  0.500  0.000
       0.000  0.000  0.500
     ------------------------ ATOM   62 ------------------------
     Tr[ns( 62)] =   3.00000
     eigenvalues:
       0.500  0.500  0.500
     eigenvectors (columns):
       1.000  0.000  0.000
       0.000  1.000  0.000
       0.000  0.000  1.000
     occupation matrix ns (before diag.):
       0.500  0.000  0.000
       0.000  0.500  0.000
       0.000  0.000  0.500
     ------------------------ ATOM   63 ------------------------
     Tr[ns( 63)] =   3.00000
     eigenvalues:
       0.500  0.500  0.500
     eigenvectors (columns):
       1.000  0.000  0.000
       0.000  1.000  0.000
       0.000  0.000  1.000
     occupation matrix ns (before diag.):
       0.500  0.000  0.000
       0.000  0.500  0.000
       0.000  0.000  0.500
     ------------------------ ATOM   64 ------------------------
     Tr[ns( 64)] =   3.00000
     eigenvalues:
       0.500  0.500  0.500
     eigenvectors (columns):
       1.000  0.000  0.000
       0.000  1.000  0.000
       0.000  0.000  1.000
     occupation matrix ns (before diag.):
       0.500  0.000  0.000
       0.000  0.500  0.000
       0.000  0.000  0.500
     ------------------------ ATOM   65 ------------------------
     Tr[ns( 65)] =   1.00000
     eigenvalues:
       0.167  0.167  0.167
     eigenvectors (columns):
       1.000  0.000  0.000
       0.000  1.000  0.000
       0.000  0.000  1.000
     occupation matrix ns (before diag.):
       0.167  0.000  0.000
       0.000  0.167  0.000
       0.000  0.000  0.167
     ------------------------ ATOM   66 ------------------------
     Tr[ns( 66)] =   1.00000
     eigenvalues:
       0.167  0.167  0.167
     eigenvectors (columns):
       1.000  0.000  0.000
       0.000  1.000  0.000
       0.000  0.000  1.000
     occupation matrix ns (before diag.):
       0.167  0.000  0.000
       0.000  0.167  0.000
       0.000  0.000  0.167
     ------------------------ ATOM   67 ------------------------
     Tr[ns( 67)] =   1.00000
     eigenvalues:
       0.167  0.167  0.167
     eigenvectors (columns):
       1.000  0.000  0.000
       0.000  1.000  0.000
       0.000  0.000  1.000
     occupation matrix ns (before diag.):
       0.167  0.000  0.000
       0.000  0.167  0.000
       0.000  0.000  0.167
     ------------------------ ATOM   68 ------------------------
     Tr[ns( 68)] =   1.00000
     eigenvalues:
       0.167  0.167  0.167
     eigenvectors (columns):
       1.000  0.000  0.000
       0.000  1.000  0.000
       0.000  0.000  1.000
     occupation matrix ns (before diag.):
       0.167  0.000  0.000
       0.000  0.167  0.000
       0.000  0.000  0.167
     ------------------------ ATOM   69 ------------------------
     Tr[ns( 69)] =   3.00000
     eigenvalues:
       0.500  0.500  0.500
     eigenvectors (columns):
       1.000  0.000  0.000
       0.000  1.000  0.000
       0.000  0.000  1.000
     occupation matrix ns (before diag.):
       0.500  0.000  0.000
       0.000  0.500  0.000
       0.000  0.000  0.500
     ------------------------ ATOM   70 ------------------------
     Tr[ns( 70)] =   3.00000
     eigenvalues:
       0.500  0.500  0.500
     eigenvectors (columns):
       1.000  0.000  0.000
       0.000  1.000  0.000
       0.000  0.000  1.000
     occupation matrix ns (before diag.):
       0.500  0.000  0.000
       0.000  0.500  0.000
       0.000  0.000  0.500
     ------------------------ ATOM   71 ------------------------
     Tr[ns( 71)] =   3.00000
     eigenvalues:
       0.500  0.500  0.500
     eigenvectors (columns):
       1.000  0.000  0.000
       0.000  1.000  0.000
       0.000  0.000  1.000
     occupation matrix ns (before diag.):
       0.500  0.000  0.000
       0.000  0.500  0.000
       0.000  0.000  0.500
     ------------------------ ATOM   72 ------------------------
     Tr[ns( 72)] =   3.00000
     eigenvalues:
       0.500  0.500  0.500
     eigenvectors (columns):
       1.000  0.000  0.000
       0.000  1.000  0.000
       0.000  0.000  1.000
     occupation matrix ns (before diag.):
       0.500  0.000  0.000
       0.000  0.500  0.000
       0.000  0.000  0.500
     ------------------------ ATOM   73 ------------------------
     Tr[ns( 73)] =   1.00000
     eigenvalues:
       0.167  0.167  0.167
     eigenvectors (columns):
       1.000  0.000  0.000
       0.000  1.000  0.000
       0.000  0.000  1.000
     occupation matrix ns (before diag.):
       0.167  0.000  0.000
       0.000  0.167  0.000
       0.000  0.000  0.167
     ------------------------ ATOM   74 ------------------------
     Tr[ns( 74)] =   1.00000
     eigenvalues:
       0.167  0.167  0.167
     eigenvectors (columns):
       1.000  0.000  0.000
       0.000  1.000  0.000
       0.000  0.000  1.000
     occupation matrix ns (before diag.):
       0.167  0.000  0.000
       0.000  0.167  0.000
       0.000  0.000  0.167
     ------------------------ ATOM   75 ------------------------
     Tr[ns( 75)] =   1.00000
     eigenvalues:
       0.167  0.167  0.167
     eigenvectors (columns):
       1.000  0.000  0.000
       0.000  1.000  0.000
       0.000  0.000  1.000
     occupation matrix ns (before diag.):
       0.167  0.000  0.000
       0.000  0.167  0.000
       0.000  0.000  0.167
     ------------------------ ATOM   76 ------------------------
     Tr[ns( 76)] =   1.00000
     eigenvalues:
       0.167  0.167  0.167
     eigenvectors (columns):
       1.000  0.000  0.000
       0.000  1.000  0.000
       0.000  0.000  1.000
     occupation matrix ns (before diag.):
       0.167  0.000  0.000
       0.000  0.167  0.000
       0.000  0.000  0.167
     ------------------------ ATOM   77 ------------------------
     Tr[ns( 77)] =   3.00000
     eigenvalues:
       0.500  0.500  0.500
     eigenvectors (columns):
       1.000  0.000  0.000
       0.000  1.000  0.000
       0.000  0.000  1.000
     occupation matrix ns (before diag.):
       0.500  0.000  0.000
       0.000  0.500  0.000
       0.000  0.000  0.500
     ------------------------ ATOM   78 ------------------------
     Tr[ns( 78)] =   3.00000
     eigenvalues:
       0.500  0.500  0.500
     eigenvectors (columns):
       1.000  0.000  0.000
       0.000  1.000  0.000
       0.000  0.000  1.000
     occupation matrix ns (before diag.):
       0.500  0.000  0.000
       0.000  0.500  0.000
       0.000  0.000  0.500
     ------------------------ ATOM   79 ------------------------
     Tr[ns( 79)] =   3.00000
     eigenvalues:
       0.500  0.500  0.500
     eigenvectors (columns):
       1.000  0.000  0.000
       0.000  1.000  0.000
       0.000  0.000  1.000
     occupation matrix ns (before diag.):
       0.500  0.000  0.000
       0.000  0.500  0.000
       0.000  0.000  0.500
     ------------------------ ATOM   80 ------------------------
     Tr[ns( 80)] =   3.00000
     eigenvalues:
       0.500  0.500  0.500
     eigenvectors (columns):
       1.000  0.000  0.000
       0.000  1.000  0.000
       0.000  0.000  1.000
     occupation matrix ns (before diag.):
       0.500  0.000  0.000
       0.000  0.500  0.000
       0.000  0.000  0.500
     ------------------------ ATOM   81 ------------------------
     Tr[ns( 81)] =   1.00000
     eigenvalues:
       0.167  0.167  0.167
     eigenvectors (columns):
       1.000  0.000  0.000
       0.000  1.000  0.000
       0.000  0.000  1.000
     occupation matrix ns (before diag.):
       0.167  0.000  0.000
       0.000  0.167  0.000
       0.000  0.000  0.167
     ------------------------ ATOM   82 ------------------------
     Tr[ns( 82)] =   1.00000
     eigenvalues:
       0.167  0.167  0.167
     eigenvectors (columns):
       1.000  0.000  0.000
       0.000  1.000  0.000
       0.000  0.000  1.000
     occupation matrix ns (before diag.):
       0.167  0.000  0.000
       0.000  0.167  0.000
       0.000  0.000  0.167
     ------------------------ ATOM   83 ------------------------
     Tr[ns( 83)] =   1.00000
     eigenvalues:
       0.167  0.167  0.167
     eigenvectors (columns):
       1.000  0.000  0.000
       0.000  1.000  0.000
       0.000  0.000  1.000
     occupation matrix ns (before diag.):
       0.167  0.000  0.000
       0.000  0.167  0.000
       0.000  0.000  0.167
     ------------------------ ATOM   84 ------------------------
     Tr[ns( 84)] =   1.00000
     eigenvalues:
       0.167  0.167  0.167
     eigenvectors (columns):
       1.000  0.000  0.000
       0.000  1.000  0.000
       0.000  0.000  1.000
     occupation matrix ns (before diag.):
       0.167  0.000  0.000
       0.000  0.167  0.000
       0.000  0.000  0.167
     ------------------------ ATOM   85 ------------------------
     Tr[ns( 85)] =   3.00000
     eigenvalues:
       0.500  0.500  0.500
     eigenvectors (columns):
       1.000  0.000  0.000
       0.000  1.000  0.000
       0.000  0.000  1.000
     occupation matrix ns (before diag.):
       0.500  0.000  0.000
       0.000  0.500  0.000
       0.000  0.000  0.500
     ------------------------ ATOM   86 ------------------------
     Tr[ns( 86)] =   3.00000
     eigenvalues:
       0.500  0.500  0.500
     eigenvectors (columns):
       1.000  0.000  0.000
       0.000  1.000  0.000
       0.000  0.000  1.000
     occupation matrix ns (before diag.):
       0.500  0.000  0.000
       0.000  0.500  0.000
       0.000  0.000  0.500
     ------------------------ ATOM   87 ------------------------
     Tr[ns( 87)] =   3.00000
     eigenvalues:
       0.500  0.500  0.500
     eigenvectors (columns):
       1.000  0.000  0.000
       0.000  1.000  0.000
       0.000  0.000  1.000
     occupation matrix ns (before diag.):
       0.500  0.000  0.000
       0.000  0.500  0.000
       0.000  0.000  0.500
     ------------------------ ATOM   88 ------------------------
     Tr[ns( 88)] =   3.00000
     eigenvalues:
       0.500  0.500  0.500
     eigenvectors (columns):
       1.000  0.000  0.000
       0.000  1.000  0.000
       0.000  0.000  1.000
     occupation matrix ns (before diag.):
       0.500  0.000  0.000
       0.000  0.500  0.000
       0.000  0.000  0.500
     ------------------------ ATOM   89 ------------------------
     Tr[ns( 89)] =   1.00000
     eigenvalues:
       0.167  0.167  0.167
     eigenvectors (columns):
       1.000  0.000  0.000
       0.000  1.000  0.000
       0.000  0.000  1.000
     occupation matrix ns (before diag.):
       0.167  0.000  0.000
       0.000  0.167  0.000
       0.000  0.000  0.167
     ------------------------ ATOM   90 ------------------------
     Tr[ns( 90)] =   1.00000
     eigenvalues:
       0.167  0.167  0.167
     eigenvectors (columns):
       1.000  0.000  0.000
       0.000  1.000  0.000
       0.000  0.000  1.000
     occupation matrix ns (before diag.):
       0.167  0.000  0.000
       0.000  0.167  0.000
       0.000  0.000  0.167
     ------------------------ ATOM   91 ------------------------
     Tr[ns( 91)] =   1.00000
     eigenvalues:
       0.167  0.167  0.167
     eigenvectors (columns):
       1.000  0.000  0.000
       0.000  1.000  0.000
       0.000  0.000  1.000
     occupation matrix ns (before diag.):
       0.167  0.000  0.000
       0.000  0.167  0.000
       0.000  0.000  0.167
     ------------------------ ATOM   92 ------------------------
     Tr[ns( 92)] =   1.00000
     eigenvalues:
       0.167  0.167  0.167
     eigenvectors (columns):
       1.000  0.000  0.000
       0.000  1.000  0.000
       0.000  0.000  1.000
     occupation matrix ns (before diag.):
       0.167  0.000  0.000
       0.000  0.167  0.000
       0.000  0.000  0.167
     ------------------------ ATOM   93 ------------------------
     Tr[ns( 93)] =   3.00000
     eigenvalues:
       0.500  0.500  0.500
     eigenvectors (columns):
       1.000  0.000  0.000
       0.000  1.000  0.000
       0.000  0.000  1.000
     occupation matrix ns (before diag.):
       0.500  0.000  0.000
       0.000  0.500  0.000
       0.000  0.000  0.500
     ------------------------ ATOM   94 ------------------------
     Tr[ns( 94)] =   3.00000
     eigenvalues:
       0.500  0.500  0.500
     eigenvectors (columns):
       1.000  0.000  0.000
       0.000  1.000  0.000
       0.000  0.000  1.000
     occupation matrix ns (before diag.):
       0.500  0.000  0.000
       0.000  0.500  0.000
       0.000  0.000  0.500
     ------------------------ ATOM   95 ------------------------
     Tr[ns( 95)] =   3.00000
     eigenvalues:
       0.500  0.500  0.500
     eigenvectors (columns):
       1.000  0.000  0.000
       0.000  1.000  0.000
       0.000  0.000  1.000
     occupation matrix ns (before diag.):
       0.500  0.000  0.000
       0.000  0.500  0.000
       0.000  0.000  0.500
     ------------------------ ATOM   96 ------------------------
     Tr[ns( 96)] =   3.00000
     eigenvalues:
       0.500  0.500  0.500
     eigenvectors (columns):
       1.000  0.000  0.000
       0.000  1.000  0.000
       0.000  0.000  1.000
     occupation matrix ns (before diag.):
       0.500  0.000  0.000
       0.000  0.500  0.000
       0.000  0.000  0.500
     ------------------------ ATOM   97 ------------------------
     Tr[ns( 97)] =   1.00000
     eigenvalues:
       0.167  0.167  0.167
     eigenvectors (columns):
       1.000  0.000  0.000
       0.000  1.000  0.000
       0.000  0.000  1.000
     occupation matrix ns (before diag.):
       0.167  0.000  0.000
       0.000  0.167  0.000
       0.000  0.000  0.167
     ------------------------ ATOM   98 ------------------------
     Tr[ns( 98)] =   1.00000
     eigenvalues:
       0.167  0.167  0.167
     eigenvectors (columns):
       1.000  0.000  0.000
       0.000  1.000  0.000
       0.000  0.000  1.000
     occupation matrix ns (before diag.):
       0.167  0.000  0.000
       0.000  0.167  0.000
       0.000  0.000  0.167
     ------------------------ ATOM   99 ------------------------
     Tr[ns( 99)] =   1.00000
     eigenvalues:
       0.167  0.167  0.167
     eigenvectors (columns):
       1.000  0.000  0.000
       0.000  1.000  0.000
       0.000  0.000  1.000
     occupation matrix ns (before diag.):
       0.167  0.000  0.000
       0.000  0.167  0.000
       0.000  0.000  0.167
     ------------------------ ATOM  100 ------------------------
     Tr[ns(100)] =   1.00000
     eigenvalues:
       0.167  0.167  0.167
     eigenvectors (columns):
       1.000  0.000  0.000
       0.000  1.000  0.000
       0.000  0.000  1.000
     occupation matrix ns (before diag.):
       0.167  0.000  0.000
       0.000  0.167  0.000
       0.000  0.000  0.167
     ------------------------ ATOM  101 ------------------------
     Tr[ns(101)] =   3.00000
     eigenvalues:
       0.500  0.500  0.500
     eigenvectors (columns):
       1.000  0.000  0.000
       0.000  1.000  0.000
       0.000  0.000  1.000
     occupation matrix ns (before diag.):
       0.500  0.000  0.000
       0.000  0.500  0.000
       0.000  0.000  0.500
     ------------------------ ATOM  102 ------------------------
     Tr[ns(102)] =   3.00000
     eigenvalues:
       0.500  0.500  0.500
     eigenvectors (columns):
       1.000  0.000  0.000
       0.000  1.000  0.000
       0.000  0.000  1.000
     occupation matrix ns (before diag.):
       0.500  0.000  0.000
       0.000  0.500  0.000
       0.000  0.000  0.500
     ------------------------ ATOM  103 ------------------------
     Tr[ns(103)] =   3.00000
     eigenvalues:
       0.500  0.500  0.500
     eigenvectors (columns):
       1.000  0.000  0.000
       0.000  1.000  0.000
       0.000  0.000  1.000
     occupation matrix ns (before diag.):
       0.500  0.000  0.000
       0.000  0.500  0.000
       0.000  0.000  0.500
     ------------------------ ATOM  104 ------------------------
     Tr[ns(104)] =   3.00000
     eigenvalues:
       0.500  0.500  0.500
     eigenvectors (columns):
       1.000  0.000  0.000
       0.000  1.000  0.000
       0.000  0.000  1.000
     occupation matrix ns (before diag.):
       0.500  0.000  0.000
       0.000  0.500  0.000
       0.000  0.000  0.500
     ------------------------ ATOM  105 ------------------------
     Tr[ns(105)] =   1.00000
     eigenvalues:
       0.167  0.167  0.167
     eigenvectors (columns):
       1.000  0.000  0.000
       0.000  1.000  0.000
       0.000  0.000  1.000
     occupation matrix ns (before diag.):
       0.167  0.000  0.000
       0.000  0.167  0.000
       0.000  0.000  0.167
     ------------------------ ATOM  106 ------------------------
     Tr[ns(106)] =   1.00000
     eigenvalues:
       0.167  0.167  0.167
     eigenvectors (columns):
       1.000  0.000  0.000
       0.000  1.000  0.000
       0.000  0.000  1.000
     occupation matrix ns (before diag.):
       0.167  0.000  0.000
       0.000  0.167  0.000
       0.000  0.000  0.167
     ------------------------ ATOM  107 ------------------------
     Tr[ns(107)] =   1.00000
     eigenvalues:
       0.167  0.167  0.167
     eigenvectors (columns):
       1.000  0.000  0.000
       0.000  1.000  0.000
       0.000  0.000  1.000
     occupation matrix ns (before diag.):
       0.167  0.000  0.000
       0.000  0.167  0.000
       0.000  0.000  0.167
     ------------------------ ATOM  108 ------------------------
     Tr[ns(108)] =   1.00000
     eigenvalues:
       0.167  0.167  0.167
     eigenvectors (columns):
       1.000  0.000  0.000
       0.000  1.000  0.000
       0.000  0.000  1.000
     occupation matrix ns (before diag.):
       0.167  0.000  0.000
       0.000  0.167  0.000
       0.000  0.000  0.167
     ------------------------ ATOM  109 ------------------------
     Tr[ns(109)] =   3.00000
     eigenvalues:
       0.500  0.500  0.500
     eigenvectors (columns):
       1.000  0.000  0.000
       0.000  1.000  0.000
       0.000  0.000  1.000
     occupation matrix ns (before diag.):
       0.500  0.000  0.000
       0.000  0.500  0.000
       0.000  0.000  0.500
     ------------------------ ATOM  110 ------------------------
     Tr[ns(110)] =   3.00000
     eigenvalues:
       0.500  0.500  0.500
     eigenvectors (columns):
       1.000  0.000  0.000
       0.000  1.000  0.000
       0.000  0.000  1.000
     occupation matrix ns (before diag.):
       0.500  0.000  0.000
       0.000  0.500  0.000
       0.000  0.000  0.500
     ------------------------ ATOM  111 ------------------------
     Tr[ns(111)] =   3.00000
     eigenvalues:
       0.500  0.500  0.500
     eigenvectors (columns):
       1.000  0.000  0.000
       0.000  1.000  0.000
       0.000  0.000  1.000
     occupation matrix ns (before diag.):
       0.500  0.000  0.000
       0.000  0.500  0.000
       0.000  0.000  0.500
     ------------------------ ATOM  112 ------------------------
     Tr[ns(112)] =   3.00000
     eigenvalues:
       0.500  0.500  0.500
     eigenvectors (columns):
       1.000  0.000  0.000
       0.000  1.000  0.000
       0.000  0.000  1.000
     occupation matrix ns (before diag.):
       0.500  0.000  0.000
       0.000  0.500  0.000
       0.000  0.000  0.500
     ------------------------ ATOM  113 ------------------------
     Tr[ns(113)] =   1.00000
     eigenvalues:
       0.167  0.167  0.167
     eigenvectors (columns):
       1.000  0.000  0.000
       0.000  1.000  0.000
       0.000  0.000  1.000
     occupation matrix ns (before diag.):
       0.167  0.000  0.000
       0.000  0.167  0.000
       0.000  0.000  0.167
     ------------------------ ATOM  114 ------------------------
     Tr[ns(114)] =   1.00000
     eigenvalues:
       0.167  0.167  0.167
     eigenvectors (columns):
       1.000  0.000  0.000
       0.000  1.000  0.000
       0.000  0.000  1.000
     occupation matrix ns (before diag.):
       0.167  0.000  0.000
       0.000  0.167  0.000
       0.000  0.000  0.167
     ------------------------ ATOM  115 ------------------------
     Tr[ns(115)] =   1.00000
     eigenvalues:
       0.167  0.167  0.167
     eigenvectors (columns):
       1.000  0.000  0.000
       0.000  1.000  0.000
       0.000  0.000  1.000
     occupation matrix ns (before diag.):
       0.167  0.000  0.000
       0.000  0.167  0.000
       0.000  0.000  0.167
     ------------------------ ATOM  116 ------------------------
     Tr[ns(116)] =   1.00000
     eigenvalues:
       0.167  0.167  0.167
     eigenvectors (columns):
       1.000  0.000  0.000
       0.000  1.000  0.000
       0.000  0.000  1.000
     occupation matrix ns (before diag.):
       0.167  0.000  0.000
       0.000  0.167  0.000
       0.000  0.000  0.167
     ------------------------ ATOM  117 ------------------------
     Tr[ns(117)] =   3.00000
     eigenvalues:
       0.500  0.500  0.500
     eigenvectors (columns):
       1.000  0.000  0.000
       0.000  1.000  0.000
       0.000  0.000  1.000
     occupation matrix ns (before diag.):
       0.500  0.000  0.000
       0.000  0.500  0.000
       0.000  0.000  0.500
     ------------------------ ATOM  118 ------------------------
     Tr[ns(118)] =   3.00000
     eigenvalues:
       0.500  0.500  0.500
     eigenvectors (columns):
       1.000  0.000  0.000
       0.000  1.000  0.000
       0.000  0.000  1.000
     occupation matrix ns (before diag.):
       0.500  0.000  0.000
       0.000  0.500  0.000
       0.000  0.000  0.500
     ------------------------ ATOM  119 ------------------------
     Tr[ns(119)] =   3.00000
     eigenvalues:
       0.500  0.500  0.500
     eigenvectors (columns):
       1.000  0.000  0.000
       0.000  1.000  0.000
       0.000  0.000  1.000
     occupation matrix ns (before diag.):
       0.500  0.000  0.000
       0.000  0.500  0.000
       0.000  0.000  0.500
     ------------------------ ATOM  120 ------------------------
     Tr[ns(120)] =   3.00000
     eigenvalues:
       0.500  0.500  0.500
     eigenvectors (columns):
       1.000  0.000  0.000
       0.000  1.000  0.000
       0.000  0.000  1.000
     occupation matrix ns (before diag.):
       0.500  0.000  0.000
       0.000  0.500  0.000
       0.000  0.000  0.500
     ------------------------ ATOM  121 ------------------------
     Tr[ns(121)] =   1.00000
     eigenvalues:
       0.167  0.167  0.167
     eigenvectors (columns):
       1.000  0.000  0.000
       0.000  1.000  0.000
       0.000  0.000  1.000
     occupation matrix ns (before diag.):
       0.167  0.000  0.000
       0.000  0.167  0.000
       0.000  0.000  0.167
     ------------------------ ATOM  122 ------------------------
     Tr[ns(122)] =   1.00000
     eigenvalues:
       0.167  0.167  0.167
     eigenvectors (columns):
       1.000  0.000  0.000
       0.000  1.000  0.000
       0.000  0.000  1.000
     occupation matrix ns (before diag.):
       0.167  0.000  0.000
       0.000  0.167  0.000
       0.000  0.000  0.167
     ------------------------ ATOM  123 ------------------------
     Tr[ns(123)] =   1.00000
     eigenvalues:
       0.167  0.167  0.167
     eigenvectors (columns):
       1.000  0.000  0.000
       0.000  1.000  0.000
       0.000  0.000  1.000
     occupation matrix ns (before diag.):
       0.167  0.000  0.000
       0.000  0.167  0.000
       0.000  0.000  0.167
     ------------------------ ATOM  124 ------------------------
     Tr[ns(124)] =   1.00000
     eigenvalues:
       0.167  0.167  0.167
     eigenvectors (columns):
       1.000  0.000  0.000
       0.000  1.000  0.000
       0.000  0.000  1.000
     occupation matrix ns (before diag.):
       0.167  0.000  0.000
       0.000  0.167  0.000
       0.000  0.000  0.167
     ------------------------ ATOM  125 ------------------------
     Tr[ns(125)] =   3.00000
     eigenvalues:
       0.500  0.500  0.500
     eigenvectors (columns):
       1.000  0.000  0.000
       0.000  1.000  0.000
       0.000  0.000  1.000
     occupation matrix ns (before diag.):
       0.500  0.000  0.000
       0.000  0.500  0.000
       0.000  0.000  0.500
     ------------------------ ATOM  126 ------------------------
     Tr[ns(126)] =   3.00000
     eigenvalues:
       0.500  0.500  0.500
     eigenvectors (columns):
       1.000  0.000  0.000
       0.000  1.000  0.000
       0.000  0.000  1.000
     occupation matrix ns (before diag.):
       0.500  0.000  0.000
       0.000  0.500  0.000
       0.000  0.000  0.500
     ------------------------ ATOM  127 ------------------------
     Tr[ns(127)] =   3.00000
     eigenvalues:
       0.500  0.500  0.500
     eigenvectors (columns):
       1.000  0.000  0.000
       0.000  1.000  0.000
       0.000  0.000  1.000
     occupation matrix ns (before diag.):
       0.500  0.000  0.000
       0.000  0.500  0.000
       0.000  0.000  0.500
     ------------------------ ATOM  128 ------------------------
     Tr[ns(128)] =   3.00000
     eigenvalues:
       0.500  0.500  0.500
     eigenvectors (columns):
       1.000  0.000  0.000
       0.000  1.000  0.000
       0.000  0.000  1.000
     occupation matrix ns (before diag.):
       0.500  0.000  0.000
       0.000  0.500  0.000
       0.000  0.000  0.500
     ------------------------ ATOM  129 ------------------------
     Tr[ns(129)] =   1.00000
     eigenvalues:
       0.167  0.167  0.167
     eigenvectors (columns):
       1.000  0.000  0.000
       0.000  1.000  0.000
       0.000  0.000  1.000
     occupation matrix ns (before diag.):
       0.167  0.000  0.000
       0.000  0.167  0.000
       0.000  0.000  0.167
     ------------------------ ATOM  130 ------------------------
     Tr[ns(130)] =   1.00000
     eigenvalues:
       0.167  0.167  0.167
     eigenvectors (columns):
       1.000  0.000  0.000
       0.000  1.000  0.000
       0.000  0.000  1.000
     occupation matrix ns (before diag.):
       0.167  0.000  0.000
       0.000  0.167  0.000
       0.000  0.000  0.167
     ------------------------ ATOM  131 ------------------------
     Tr[ns(131)] =   1.00000
     eigenvalues:
       0.167  0.167  0.167
     eigenvectors (columns):
       1.000  0.000  0.000
       0.000  1.000  0.000
       0.000  0.000  1.000
     occupation matrix ns (before diag.):
       0.167  0.000  0.000
       0.000  0.167  0.000
       0.000  0.000  0.167
     ------------------------ ATOM  132 ------------------------
     Tr[ns(132)] =   1.00000
     eigenvalues:
       0.167  0.167  0.167
     eigenvectors (columns):
       1.000  0.000  0.000
       0.000  1.000  0.000
       0.000  0.000  1.000
     occupation matrix ns (before diag.):
       0.167  0.000  0.000
       0.000  0.167  0.000
       0.000  0.000  0.167
     ------------------------ ATOM  133 ------------------------
     Tr[ns(133)] =   3.00000
     eigenvalues:
       0.500  0.500  0.500
     eigenvectors (columns):
       1.000  0.000  0.000
       0.000  1.000  0.000
       0.000  0.000  1.000
     occupation matrix ns (before diag.):
       0.500  0.000  0.000
       0.000  0.500  0.000
       0.000  0.000  0.500
     ------------------------ ATOM  134 ------------------------
     Tr[ns(134)] =   3.00000
     eigenvalues:
       0.500  0.500  0.500
     eigenvectors (columns):
       1.000  0.000  0.000
       0.000  1.000  0.000
       0.000  0.000  1.000
     occupation matrix ns (before diag.):
       0.500  0.000  0.000
       0.000  0.500  0.000
       0.000  0.000  0.500
     ------------------------ ATOM  135 ------------------------
     Tr[ns(135)] =   3.00000
     eigenvalues:
       0.500  0.500  0.500
     eigenvectors (columns):
       1.000  0.000  0.000
       0.000  1.000  0.000
       0.000  0.000  1.000
     occupation matrix ns (before diag.):
       0.500  0.000  0.000
       0.000  0.500  0.000
       0.000  0.000  0.500
     ------------------------ ATOM  136 ------------------------
     Tr[ns(136)] =   3.00000
     eigenvalues:
       0.500  0.500  0.500
     eigenvectors (columns):
       1.000  0.000  0.000
       0.000  1.000  0.000
       0.000  0.000  1.000
     occupation matrix ns (before diag.):
       0.500  0.000  0.000
       0.000  0.500  0.000
       0.000  0.000  0.500
     ------------------------ ATOM  137 ------------------------
     Tr[ns(137)] =   1.00000
     eigenvalues:
       0.167  0.167  0.167
     eigenvectors (columns):
       1.000  0.000  0.000
       0.000  1.000  0.000
       0.000  0.000  1.000
     occupation matrix ns (before diag.):
       0.167  0.000  0.000
       0.000  0.167  0.000
       0.000  0.000  0.167
     ------------------------ ATOM  138 ------------------------
     Tr[ns(138)] =   1.00000
     eigenvalues:
       0.167  0.167  0.167
     eigenvectors (columns):
       1.000  0.000  0.000
       0.000  1.000  0.000
       0.000  0.000  1.000
     occupation matrix ns (before diag.):
       0.167  0.000  0.000
       0.000  0.167  0.000
       0.000  0.000  0.167
     ------------------------ ATOM  139 ------------------------
     Tr[ns(139)] =   1.00000
     eigenvalues:
       0.167  0.167  0.167
     eigenvectors (columns):
       1.000  0.000  0.000
       0.000  1.000  0.000
       0.000  0.000  1.000
     occupation matrix ns (before diag.):
       0.167  0.000  0.000
       0.000  0.167  0.000
       0.000  0.000  0.167
     ------------------------ ATOM  140 ------------------------
     Tr[ns(140)] =   1.00000
     eigenvalues:
       0.167  0.167  0.167
     eigenvectors (columns):
       1.000  0.000  0.000
       0.000  1.000  0.000
       0.000  0.000  1.000
     occupation matrix ns (before diag.):
       0.167  0.000  0.000
       0.000  0.167  0.000
       0.000  0.000  0.167
     ------------------------ ATOM  141 ------------------------
     Tr[ns(141)] =   3.00000
     eigenvalues:
       0.500  0.500  0.500
     eigenvectors (columns):
       1.000  0.000  0.000
       0.000  1.000  0.000
       0.000  0.000  1.000
     occupation matrix ns (before diag.):
       0.500  0.000  0.000
       0.000  0.500  0.000
       0.000  0.000  0.500
     ------------------------ ATOM  142 ------------------------
     Tr[ns(142)] =   3.00000
     eigenvalues:
       0.500  0.500  0.500
     eigenvectors (columns):
       1.000  0.000  0.000
       0.000  1.000  0.000
       0.000  0.000  1.000
     occupation matrix ns (before diag.):
       0.500  0.000  0.000
       0.000  0.500  0.000
       0.000  0.000  0.500
     ------------------------ ATOM  143 ------------------------
     Tr[ns(143)] =   3.00000
     eigenvalues:
       0.500  0.500  0.500
     eigenvectors (columns):
       1.000  0.000  0.000
       0.000  1.000  0.000
       0.000  0.000  1.000
     occupation matrix ns (before diag.):
       0.500  0.000  0.000
       0.000  0.500  0.000
       0.000  0.000  0.500
     ------------------------ ATOM  144 ------------------------
     Tr[ns(144)] =   3.00000
     eigenvalues:
       0.500  0.500  0.500
     eigenvectors (columns):
       1.000  0.000  0.000
       0.000  1.000  0.000
       0.000  0.000  1.000
     occupation matrix ns (before diag.):
       0.500  0.000  0.000
       0.000  0.500  0.000
       0.000  0.000  0.500
     ------------------------ ATOM  145 ------------------------
     Tr[ns(145)] =   1.00000
     eigenvalues:
       0.167  0.167  0.167
     eigenvectors (columns):
       1.000  0.000  0.000
       0.000  1.000  0.000
       0.000  0.000  1.000
     occupation matrix ns (before diag.):
       0.167  0.000  0.000
       0.000  0.167  0.000
       0.000  0.000  0.167
     ------------------------ ATOM  146 ------------------------
     Tr[ns(146)] =   1.00000
     eigenvalues:
       0.167  0.167  0.167
     eigenvectors (columns):
       1.000  0.000  0.000
       0.000  1.000  0.000
       0.000  0.000  1.000
     occupation matrix ns (before diag.):
       0.167  0.000  0.000
       0.000  0.167  0.000
       0.000  0.000  0.167
     ------------------------ ATOM  147 ------------------------
     Tr[ns(147)] =   1.00000
     eigenvalues:
       0.167  0.167  0.167
     eigenvectors (columns):
       1.000  0.000  0.000
       0.000  1.000  0.000
       0.000  0.000  1.000
     occupation matrix ns (before diag.):
       0.167  0.000  0.000
       0.000  0.167  0.000
       0.000  0.000  0.167
     ------------------------ ATOM  148 ------------------------
     Tr[ns(148)] =   1.00000
     eigenvalues:
       0.167  0.167  0.167
     eigenvectors (columns):
       1.000  0.000  0.000
       0.000  1.000  0.000
       0.000  0.000  1.000
     occupation matrix ns (before diag.):
       0.167  0.000  0.000
       0.000  0.167  0.000
       0.000  0.000  0.167
     ------------------------ ATOM  149 ------------------------
     Tr[ns(149)] =   3.00000
     eigenvalues:
       0.500  0.500  0.500
     eigenvectors (columns):
       1.000  0.000  0.000
       0.000  1.000  0.000
       0.000  0.000  1.000
     occupation matrix ns (before diag.):
       0.500  0.000  0.000
       0.000  0.500  0.000
       0.000  0.000  0.500
     ------------------------ ATOM  150 ------------------------
     Tr[ns(150)] =   3.00000
     eigenvalues:
       0.500  0.500  0.500
     eigenvectors (columns):
       1.000  0.000  0.000
       0.000  1.000  0.000
       0.000  0.000  1.000
     occupation matrix ns (before diag.):
       0.500  0.000  0.000
       0.000  0.500  0.000
       0.000  0.000  0.500
     ------------------------ ATOM  151 ------------------------
     Tr[ns(151)] =   3.00000
     eigenvalues:
       0.500  0.500  0.500
     eigenvectors (columns):
       1.000  0.000  0.000
       0.000  1.000  0.000
       0.000  0.000  1.000
     occupation matrix ns (before diag.):
       0.500  0.000  0.000
       0.000  0.500  0.000
       0.000  0.000  0.500
     ------------------------ ATOM  152 ------------------------
[...]
   -25.8870 -25.8870 -25.8869 -25.8867 -25.8864 -25.8864 -25.8862 -25.8861
   -25.8857 -25.8853 -25.8852 -25.8852 -25.8851 -25.8850 -25.8850 -25.8848
   -25.8847 -25.8846 -25.8839 -25.8838 -25.8835 -25.8832 -25.8825 -25.8823
   -25.8821 -25.8821 -25.8818 -25.8815 -25.8815 -25.8814 -25.8812 -25.8811
   -25.8810 -25.8810 -25.8801 -25.8799 -25.8797 -25.8792 -25.8789 -25.8787
   -25.8786 -25.8785 -25.8782 -25.8777 -25.8769 -25.8763 -25.8759 -25.8758
   -25.8751 -25.8743 -25.8742 -25.8737 -25.8735 -25.8729 -25.8727 -25.8724
   -25.8723 -25.8722 -25.8707 -25.8700 -25.8695 -25.8686 -25.8676 -25.8673
   -25.8617 -25.8610 -25.8610 -25.8563 -25.8554 -19.3677 -19.3669 -19.3645
   -19.3597 -19.3588 -19.3571 -19.3538 -19.3514 -19.3496 -19.3469 -19.3444
   -19.3435 -19.3434 -19.3433 -19.3428 -19.3426 -19.3412 -19.3409 -19.3404
   -19.3401 -19.3388 -19.3383 -19.3377 -19.3363 -19.3362 -19.3362 -19.3354
   -19.3349 -19.3334 -19.3330 -19.3328 -19.3325 -19.3321 -19.3317 -19.3314
   -19.3298 -19.3294 -19.3293 -19.3285 -19.3283 -19.3282 -19.3282 -19.3270
   -19.3266 -19.3263 -19.3263 -19.3262 -19.3261 -19.3258 -19.3254 -19.3250
   -19.3247 -19.3238 -19.3234 -19.3229 -19.3226 -19.3219 -19.3218 -19.3212
   -19.3209 -19.3207 -19.3204 -19.3188 -19.3187 -19.3183 -19.3182 -19.3182
   -19.3181 -19.3179 -19.3171 -19.3170 -19.3155 -19.3154 -19.3153 -19.3144
   -19.3143 -19.3141 -19.3138 -19.3137 -19.3133 -19.3120 -19.3116 -19.3115
   -19.3106 -19.3103 -19.3100 -19.3086 -19.3085 -19.3084 -19.3082 -19.3079
   -19.3077 -19.3070 -19.3051 -19.3050 -19.3047 -19.3044 -19.3043 -19.3040
   -19.3039 -19.3033 -19.3030 -19.3028 -19.3025 -19.3014 -19.3010 -19.3007
   -19.3002 -19.2996 -19.2992 -19.2987 -19.2985 -19.2983 -19.2978 -19.2971
   -19.2961 -19.2948 -19.2942 -19.2918 -19.2915 -19.2913 -19.2912 -19.2907
   -19.2899 -19.2890 -19.2884 -19.2859 -19.2847 -19.2808 -19.2796 -19.2792
   -19.2786 -19.2780 -19.2719 -19.2684  -7.2342  -7.2254  -7.2201  -7.2163
    -7.2131  -7.2119  -7.2067  -7.2051  -7.2036  -7.2035  -7.2027  -7.2021
    -7.2004  -7.1992  -7.1991  -7.1987  -7.1961  -7.1960  -7.1939  -7.1926
    -7.1914  -7.1905  -7.1904  -7.1898  -7.1882  -7.1881  -7.1862  -7.1844
    -7.1835  -7.1808  -7.1797  -7.1794  -7.1784  -7.1779  -7.1771  -7.1769
    -7.1763  -7.1758  -7.1752  -7.1745  -7.1732  -7.1726  -7.1710  -7.1704
    -7.1699  -7.1696  -7.1684  -7.1680  -7.1671  -7.1655  -7.1639  -7.1634
    -7.1628  -7.1615  -7.1612  -7.1606  -7.1603  -7.1595  -7.1590  -7.1585
    -7.1582  -7.1576  -7.1570  -7.1565  -7.1557  -7.1555  -7.1551  -7.1545
    -7.1541  -7.1533  -7.1532  -7.1520  -7.1516  -7.1506  -7.1499  -7.1496
    -7.1493  -7.1487  -7.1483  -7.1480  -7.1471  -7.1469  -7.1467  -7.1463
    -7.1460  -7.1452  -7.1449  -7.1442  -7.1436  -7.1434  -7.1432  -7.1426
    -7.1423  -7.1414  -7.1411  -7.1407  -7.1401  -7.1400  -7.1399  -7.1392
    -7.1388  -7.1384  -7.1379  -7.1375  -7.1368  -7.1364  -7.1355  -7.1348
    -7.1340  -7.1335  -7.1334  -7.1330  -7.1329  -7.1320  -7.1318  -7.1310
    -7.1306  -7.1304  -7.1301  -7.1293  -7.1285  -7.1283  -7.1276  -7.1274
    -7.1270  -7.1266  -7.1263  -7.1258  -7.1253  -7.1250  -7.1245  -7.1242
    -7.1239  -7.1232  -7.1223  -7.1219  -7.1218  -7.1207  -7.1205  -7.1200
    -7.1196  -7.1193  -7.1190  -7.1186  -7.1181  -7.1179  -7.1174  -7.1167
    -7.1161  -7.1157  -7.1154  -7.1153  -7.1146  -7.1142  -7.1137  -7.1137
    -7.1133  -7.1131  -7.1126  -7.1125  -7.1119  -7.1118  -7.1115  -7.1102
    -7.1101  -7.1093  -7.1091  -7.1087  -7.1083  -7.1080  -7.1073  -7.1065
    -7.1061  -7.1059  -7.1052  -7.1051  -7.1049  -7.1045  -7.1038  -7.1034
    -7.1030  -7.1028  -7.1023  -7.1021  -7.1017  -7.1013  -7.1011  -7.1009
    -7.1006  -7.0999  -7.0998  -7.0991  -7.0988  -7.0984  -7.0978  -7.0973
    -7.0967  -7.0964  -7.0961  -7.0959  -7.0949  -7.0946  -7.0944  -7.0938
    -7.0935  -7.0932  -7.0928  -7.0923  -7.0921  -7.0919  -7.0913  -7.0907
    -7.0903  -7.0901  -7.0892  -7.0890  -7.0887  -7.0886  -7.0884  -7.0880
    -7.0871  -7.0870  -7.0867  -7.0864  -7.0861  -7.0859  -7.0853  -7.0848
    -7.0846  -7.0845  -7.0840  -7.0837  -7.0831  -7.0823  -7.0821  -7.0815
    -7.0811  -7.0809  -7.0808  -7.0800  -7.0798  -7.0796  -7.0795  -7.0789
    -7.0786  -7.0780  -7.0775  -7.0772  -7.0769  -7.0766  -7.0763  -7.0760
    -7.0753  -7.0751  -7.0749  -7.0743  -7.0740  -7.0735  -7.0732  -7.0728
    -7.0727  -7.0723  -7.0718  -7.0716  -7.0713  -7.0707  -7.0704  -7.0701
    -7.0694  -7.0693  -7.0692  -7.0686  -7.0679  -7.0678  -7.0677  -7.0674
    -7.0672  -7.0667  -7.0660  -7.0655  -7.0650  -7.0649  -7.0646  -7.0644
    -7.0635  -7.0633  -7.0630  -7.0626  -7.0622  -7.0619  -7.0613  -7.0612
    -7.0604  -7.0602  -7.0597  -7.0590  -7.0588  -7.0586  -7.0583  -7.0579
    -7.0573  -7.0569  -7.0564  -7.0559  -7.0559  -7.0558  -7.0552  -7.0549
    -7.0544  -7.0539  -7.0535  -7.0529  -7.0528  -7.0520  -7.0518  -7.0516
    -7.0510  -7.0507  -7.0506  -7.0498  -7.0495  -7.0486  -7.0482  -7.0480
    -7.0474  -7.0471  -7.0470  -7.0465  -7.0462  -7.0454  -7.0452  -7.0448
    -7.0443  -7.0438  -7.0434  -7.0427  -7.0421  -7.0418  -7.0414  -7.0410
    -7.0405  -7.0401  -7.0395  -7.0393  -7.0386  -7.0381  -7.0379  -7.0376
    -7.0374  -7.0365  -7.0362  -7.0359  -7.0355  -7.0350  -7.0346  -7.0341
    -7.0338  -7.0334  -7.0331  -7.0324  -7.0323  -7.0320  -7.0316  -7.0313
    -7.0305  -7.0301  -7.0297  -7.0295  -7.0290  -7.0286  -7.0283  -7.0279
    -7.0278  -7.0275  -7.0272  -7.0269  -7.0263  -7.0255  -7.0255  -7.0250
    -7.0246  -7.0242  -7.0239  -7.0235  -7.0229  -7.0227  -7.0222  -7.0218
    -7.0215  -7.0212  -7.0206  -7.0203  -7.0199  -7.0195  -7.0192  -7.0187
    -7.0184  -7.0181  -7.0175  -7.0173  -7.0172  -7.0163  -7.0160  -7.0154
    -7.0153  -7.0140  -7.0138  -7.0138  -7.0134  -7.0132  -7.0129  -7.0127
    -7.0125  -7.0123  -7.0119  -7.0110  -7.0107  -7.0104  -7.0101  -7.0096
    -7.0087  -7.0083  -7.0080  -7.0074  -7.0071  -7.0064  -7.0060  -7.0048
    -7.0038  -7.0035  -7.0031  -7.0029  -7.0022  -7.0012  -7.0004  -7.0001
    -6.9992  -6.9990  -6.9989  -6.9976  -6.9971  -6.9965  -6.9961  -6.9960
    -6.9938  -6.9930  -6.9926  -6.9925  -6.9919  -6.9911  -6.9908  -6.9900
    -6.9890  -6.9883  -6.9878  -6.9874  -6.9868  -6.9865  -6.9858  -6.9854
    -6.9850  -6.9846  -6.9834  -6.9831  -6.9829  -6.9824  -6.9817  -6.9813
    -6.9805  -6.9797  -6.9794  -6.9787  -6.9785  -6.9779  -6.9776  -6.9775
    -6.9765  -6.9760  -6.9752  -6.9747  -6.9741  -6.9735  -6.9701  -6.9691
    -6.9680  -6.9669  -6.9662  -6.9656  -6.9645  -6.9642  -6.9640  -6.9639
    -6.9632  -6.9607  -6.9600  -6.9587  -6.9586  -6.9572  -6.9561  -6.9549
    -6.9531  -6.9525  -6.9511  -6.9478  -6.9463  -6.9453  -6.9415  -6.9409
    -6.9403  -6.9395  -6.9390  -6.9379  -6.9372  -6.9358  -6.9352  -6.9319
    -6.9309  -6.9302  -6.9299  -6.9277  -6.9270  -6.9264  -6.9248  -6.9241
    -6.9217  -6.9215  -6.9200  -6.9196  -6.9164  -6.9163  -6.9113  -6.9097
    -6.9073  -6.9064  -6.8809  -6.8784  -6.8764  -6.8742  -6.8725  -6.8715
    -3.6192  -3.5762  -3.5193  -3.4960  -3.3294  -3.3070  -3.2855  -3.2608
    -3.2379  -3.2306  -3.2017  -3.1567  -3.0149  -3.0089  -2.9896  -2.9810
    -2.9618  -2.9398  -2.8882  -2.8652  -2.7960  -2.7723  -2.7570  -2.7515
    -2.7434  -2.7370  -2.7274  -2.6948  -2.6904  -2.6810  -2.6620  -2.6462
    -2.6065  -2.5811  -2.5126  -2.5040  -2.4495  -2.4363  -2.4208  -2.4023
    -2.3981  -2.3806  -2.3663  -2.3346  -2.3234  -2.3109  -2.2906  -2.2835
    -2.2606  -2.2471  -2.2140  -2.2005  -2.1745  -2.1205  -2.1009  -2.0696
    -1.9521  -1.9196  -1.9164  -1.8997  -1.8783  -1.8736  -1.8616  -1.8500
    -1.8436  -1.8257  -1.8148  -1.7867  -1.7638  -1.7389  -1.7345  -1.7258
    -1.7081  -1.6919  -1.6633  -1.6345  -1.6013  -1.5921  -1.5522  -1.5362
    -1.5264  -1.5156  -1.4541  -1.4241  -1.4160  -1.3693  -1.3619  -1.3284
    -1.3153  -1.2849  -1.2588  -1.2363  -1.2292  -1.1949  -1.1656  -1.1456
    -1.0871  -1.0643  -1.0362  -0.9901  -0.9733  -0.9302  -0.8990  -0.8923
    -0.8250  -0.8222  -0.7922  -0.7377  -0.4742  -0.3977  -0.3231  -0.2891
     0.0762   0.0840   0.1009   0.1072   0.1157   0.1269   0.1381   0.1440
     0.1574   0.1705   0.1791   0.1883   0.2029   0.2152   0.2287   0.2327
     0.2435   0.2481   0.2531   0.2591   0.2738   0.2741   0.2828   0.3008
     0.3088   0.3136   0.3342   0.3403   0.3756   0.3794   0.3912   0.4134
     0.4399   0.4458   0.4703   0.4819   0.4927   0.5332   0.5354   0.5784
     0.6125   0.6210   0.6525   0.6778   0.6980   0.7191   0.7274   0.7775
     0.8144   0.8322   0.9047   0.9238   0.9417   0.9931   1.0081   1.0777
     1.3308   1.3644   1.3795   1.4018   1.4250   1.4393   1.4759   1.5106
     1.5613   1.5711   1.6114   1.6156   1.6709   1.6948   1.7420   1.7819
     1.7948   1.8182   1.8348   1.8883   1.9111   1.9370   1.9707   1.9861
     2.0223   2.0553   2.0840   2.1098   2.8444   2.8501   2.8964   2.9020
     2.9465   2.9806   2.9933   3.0018   3.0085   3.0370   3.0503   3.0754
     3.0785   3.1108   3.1259   3.1377   3.3203   3.3337   3.3405   3.3512
     3.3652   3.3812   3.3878   3.3995   3.4155   3.4172   3.4300   3.4542
     3.4600   3.4831   3.4898   3.5171   3.5485   3.5585   3.5745   3.5889
     3.6043   3.6090   3.6239   3.6431   3.6614   3.6696   3.6812   3.6985
     3.7164   3.7318   3.7349   3.7531   3.7722   3.7825   3.7950   3.8159
     3.8301   3.8461   3.8587   3.8659   3.8913   3.9035   3.9212   3.9269
     3.9465   3.9729   3.9950   4.0313   4.2244   4.2293   4.2437   4.2575
     4.2727   4.3248   4.3880   4.4059   4.4316   4.4457   4.4622   4.4653
     4.4802   4.4859   4.4938   4.5131   4.5272   4.5278   4.5599   4.5717
     4.5779   4.5926   4.5993   4.6102   4.6174   4.6258   4.6417   4.6485
     4.6756   4.6814   4.7027   4.7199   4.7432   4.7633   4.7905   4.7969
     4.8148   4.8417   4.8468   4.8561   4.8636   4.8685   4.8961   4.9062
     4.9152   4.9214   4.9587   4.9788   4.9843   4.9951   5.0020   5.0165
     5.0281   5.0348   5.0474   5.0638   5.0703   5.0765   5.0851   5.1099
     5.1140   5.1358   5.1453   5.1670   5.1785   5.1830   5.2048   5.2187
     5.2329   5.2595   5.2752   5.2795   5.2990   5.3230   5.3261   5.3379
     5.3584   5.3873   5.4021   5.4026   5.4118   5.4172   5.4389   5.4552
     5.4798   5.4953   5.5006   5.5118   5.5389   5.5566   5.5671   5.5764
     5.5918   5.5929   5.6140   5.6220   5.6274   5.6466   5.6747   5.6947
     5.7213   5.7288   5.7382   5.7657   5.7711   5.7879   5.7891   5.7933
     5.8202   5.8378   5.8455   5.8956   5.9208   5.9397   5.9495   5.9584
     5.9999   6.0055   6.0200   6.0423   6.0868   6.1123   6.1386   6.1426
     6.1745   6.1785   6.2096   6.2248   6.2336   6.2486   6.2585   6.3034
     6.3286   6.3399   6.3532   6.3692   6.3775   6.4037   6.4211   6.4276
     6.4541   6.4607   6.4833   6.5067   6.5276   6.5532   6.5754   6.5926
     6.6121   6.6148   6.6260   6.6574   6.6730   6.6876   6.7079   6.7269
     6.7401   6.7709   6.8132   6.8204   6.8541   6.8797   6.9101   6.9210
     6.9954   7.0520   7.1180   7.1343   7.4350   7.4597   7.5227   7.5683
     9.6133   9.6404   9.6729   9.6862   9.7326   9.7466   9.7796   9.7834
     9.8083   9.8540   9.9113   9.9144   9.9567   9.9747   9.9842  10.0151
    10.0176  10.0244  10.0377  10.0452  10.0609  10.0675  10.0729  10.0897
    10.1117  10.1279  10.1407  10.1638  10.1808  10.1830  10.2082  10.2105
    10.2642  10.2906  10.3118  10.3388  10.3441  10.3574  10.3716  10.3842
    10.3912  10.3978  10.4139  10.4246  10.4425  10.4546  10.4658  10.4717
    10.4757  10.4850  10.4890  10.5051  10.5124  10.5174  10.5402  10.5615
    10.5729  10.5808  10.6017  10.6178  10.6241  10.6382  10.6433  10.6671
    10.6768  10.6904  10.6963  10.7135  10.7160  10.7195  10.7362  10.7423
    10.7611  10.7712  10.7722  10.7749  10.7878  10.7989  10.8084  10.8122
    10.8217  10.8413  10.8569  10.8718  10.8812  10.9079  10.9241  10.9291
    10.9553  10.9626  10.9684  10.9823  10.9911  11.0085  11.0103  11.0278
    11.0344  11.0456  11.0605  11.0625  11.0861  11.1058  11.1133  11.1321
    11.1514  11.1646  11.1832  11.2294  11.4929  11.5167  11.5299  11.5790
    11.7265  11.7493  11.7647  11.7801  11.8005  11.8287  11.8469  11.8541
    11.8650  11.8693  11.8783  11.8945  11.9033  11.9059  11.9347  11.9471
    11.9732  11.9821  11.9890  12.0183  12.0323  12.0410  12.0601  12.0913
    12.0999  12.1137  12.1478  12.1557  12.1642  12.1802  12.1972  12.2013
    12.2100  12.2192  12.2265  12.2506  12.2543  12.2646  12.2749  12.2761
    12.4328  12.4436  12.4602  12.4637  12.4800  12.4928  12.4947  12.4989
    12.5147  12.5203  12.5328  12.5520  12.5582  12.5646  12.5757  12.5923
    12.6601  12.6788  12.6875  12.6965  12.7132  12.7238  12.7298  12.7445
    12.7462  12.7559  12.7668  12.7723  12.7772  12.7920  12.8004  12.8078
    12.8135  12.8210  12.8256  12.8267  12.8379  12.8490  12.8568  12.8632
    12.8741  12.8758  12.8860  12.8894  12.9031  12.9065  12.9099  12.9203
    12.9256  12.9353  12.9472  12.9531  12.9614  12.9653  12.9884  13.0051
    13.0180  13.0235  13.0524  13.0570  13.0647  13.0793  13.0833  13.0945
    13.0956  13.1079  13.1126  13.1278  13.2166  13.2251  13.2577  13.2744
    13.2875  13.2897  13.3076  13.3294  13.4230  13.4291  13.4354  13.4488
    13.4617  13.4698  13.4735  13.4847  13.5073  13.5213  13.5326  13.5395
    13.5677  13.5715  13.5984  13.6076  13.6247  13.6323  13.6410  13.6513
    13.6631  13.6680  13.6745  13.6892  13.6919  13.7043  13.7163  13.7292
    13.7354  13.7416  13.7468  13.7562  13.7754  13.7875  13.7908  13.8014
    13.8150  13.8249  13.8305  13.8459  13.8492  13.8571  13.8740  13.8870
    13.8952  13.9105  13.9209  13.9415  13.9516  13.9642  13.9681  13.9854
    13.9950  14.0133  14.0353  14.0489  14.1727  14.1896  14.2040  14.2123
    14.2225  14.2268  14.2406  14.2432  14.2537  14.2609  14.2733  14.2798
    14.2954  14.3094  14.3166  14.3227  14.3284  14.3320  14.3365  14.3455
    14.3560  14.3677  14.3733  14.3754  14.3968  14.4077  14.4104  14.4191
    14.4288  14.4328  14.4454  14.4505  14.4632  14.4689  14.4860  14.4869
    14.4977  14.5118  14.5215  14.5233  14.5401  14.5436  14.5507  14.5589
    14.5743  14.5853  14.5903  14.5963  14.5987  14.6187  14.6304  14.6383
    14.6560  14.6651  14.6719  14.6825  14.6850  14.6896  14.7048  14.7200
    14.7374  14.7588  14.7761  14.7876  14.8147  14.8364  14.8599  14.8706
    15.0496  15.0654  15.0862  15.0947  15.1334  15.1378  15.1512  15.1730
    15.2500  15.2683  15.3216  15.3428  15.3484  15.3600  15.4030  15.4160
    15.5425  15.5647  15.5724  15.5794  15.5903  15.6011  15.6159  15.6210
    15.6485  15.6625  15.6707  15.6952  15.6989  15.7036  15.7293  15.7386
    15.8768  15.8998  15.9420  15.9577  15.9708  15.9961  16.0037  16.0126
    16.0209  16.0419  16.0472  16.0641  16.0730  16.0799  16.0864  16.0961
    16.1110  16.1138  16.1260  16.1331  16.1426  16.1461  16.1601  16.1714
    16.1922  16.2006  16.2180  16.2260  16.2440  16.2700  16.2823  16.2953
    16.3066  16.3213  16.3455  16.3555  16.3636  16.3859  16.4071  16.4173
    16.4456  16.4648  16.4950  16.5058  16.5183  16.5431  16.5467  16.5673
    16.5886  16.6058  16.6145  16.6229  16.6272  16.6592  16.6726  16.6817
    16.7539  16.7718  16.8005  16.8116  16.8452  16.8726  16.8848  16.8915
    16.9017  16.9092  16.9182  16.9211  16.9438  16.9478  16.9554  16.9636
    16.9743  16.9779  16.9850  17.0080  17.0132  17.0259  17.0270  17.0482
    17.0639  17.0854  17.1211  17.1415  17.1815  17.1933  17.1989  17.2094
    17.2301  17.2365  17.2533  17.2586  17.2622  17.2744  17.2861  17.2937
    17.3031  17.3087  17.3145  17.3294  17.3413  17.3438  17.3557  17.3597
    17.3748  17.3935  17.4141  17.4380  17.4447  17.4669  17.4766  17.4884
    17.5000  17.5085  17.5234  17.5301  17.5413  17.5538  17.5625  17.5653
    17.5764  17.5834  17.5915  17.5935  17.5999  17.6025  17.6140  17.6214
    17.6346  17.6378  17.6537  17.6630  17.6784  17.6949  17.7097  17.7125
    17.7772  17.7820  17.8073  17.8282  17.8335  17.8382  17.8483  17.8678
    17.8701  17.8761  17.8860  17.8886  17.8982  17.9088  17.9145  17.9241
    17.9264  17.9377  17.9457  17.9499  17.9640  17.9774  17.9833  17.9914
    17.9999  18.0047  18.0232  18.0316  18.0422  18.0555  18.0679  18.0797
    18.0914  18.1023  18.1093  18.1186  18.1281  18.1330  18.1416  18.1556
    18.1753  18.1853  18.1873  18.2063  18.2984  18.3249  18.3637  18.3824
    18.3996  18.4162  18.4609  18.4737  18.4795  18.4912  18.5071  18.5138
    18.5205  18.5382  18.5479  18.5621  18.5666  18.5696  18.5785  18.5875
    18.5986  18.6053  18.6117  18.6206  18.6324  18.6400  18.6505  18.6548
    18.6668  18.6831  18.6950  18.7011  18.7075  18.7217  18.7376  18.7438
    18.7880  18.8273  18.8877  18.9342  18.9422  18.9561  18.9711  18.9819
    18.9868  18.9955  19.0250  19.0305  19.0371  19.0580  19.0600  19.0725
    19.0771  19.1231  19.1334  19.1665  19.1763  19.1993  19.2194  19.2384
    19.2638  19.3026  19.3136  19.3198  19.3477  19.3515  19.3878  19.4073
    19.4297  19.4496  19.4655  19.4820  19.4912  19.4965  19.5051  19.5125
    19.5225  19.5300  19.5473  19.5510  19.5618  19.5742  19.5758  19.5836

     highest occupied, lowest unoccupied level (ev):     7.6863    8.6995

!    total energy              =  -38619.24399435 Ry
     estimated scf accuracy    <       0.00000212 Ry

     The total energy is the sum of the following terms:
     one-electron contribution =  -20355.52611186 Ry
     hartree contribution      =   12181.88564155 Ry
     xc contribution           =   -9605.61435432 Ry
     ewald contribution        =  -20835.68775784 Ry
     Hubbard energy            =      -4.30141189 Ry

     convergence has been achieved in  12 iterations

     Writing all to output data dir ./tmp_In0.0Ga1.0As0.75Sb0.25_cube_3x3x3.6/In0.0Ga1.0As0.75Sb0.25_cube_3x3x3.6.save/ :
     XML data file, charge density, pseudopotentials, collected wavefunctions

     init_run     :    217.55s CPU    219.99s WALL (       1 calls)
     electrons    :   8092.75s CPU   8113.00s WALL (       1 calls)

     Called by init_run:
     wfcinit      :    207.94s CPU    210.01s WALL (       1 calls)
     potinit      :      2.03s CPU      2.10s WALL (       1 calls)
     hinit0       :      1.71s CPU      1.74s WALL (       1 calls)

     Called by electrons:
     c_bands      :   7834.33s CPU   7853.49s WALL (      13 calls)
     sum_band     :    253.41s CPU    253.94s WALL (      13 calls)
     v_of_rho     :      3.32s CPU      3.47s WALL (      13 calls)
     mix_rho      :      0.72s CPU      0.73s WALL (      13 calls)

     Called by c_bands:
     init_us_2    :     28.99s CPU     29.49s WALL (      28 calls)
     cegterg      :   7464.09s CPU   7481.73s WALL (      13 calls)

     Called by *egterg:
     cdiaghg      :    638.68s CPU    639.44s WALL (      90 calls)
     h_psi        :   4476.03s CPU   4486.00s WALL (      92 calls)
     g_psi        :      3.74s CPU      3.74s WALL (      78 calls)

     Called by h_psi:
     h_psi:calbec :    783.68s CPU    783.74s WALL (      92 calls)
     vloc_psi     :    642.45s CPU    644.14s WALL (      92 calls)
     add_vuspsi   :    768.03s CPU    770.72s WALL (      92 calls)
     vhpsi        :   2274.21s CPU   2274.39s WALL (      92 calls)

     General routines
     calbec       :    993.91s CPU    993.99s WALL (     198 calls)
     fft          :      3.05s CPU      3.18s WALL (     131 calls)
     ffts         :      0.21s CPU      0.21s WALL (      13 calls)
     fftw         :    636.93s CPU    638.67s WALL (  160290 calls)

     Parallel routines

     Hubbard U routines
     new_ns       :     56.94s CPU     56.95s WALL (      13 calls)
     vhpsi        :   2274.21s CPU   2274.39s WALL (      92 calls)

     PWSCF        :      2h19m CPU      2h20m WALL


   This run was terminated on:   3:29:28  14Jun2025            

=------------------------------------------------------------------------------=
   JOB DONE.
=------------------------------------------------------------------------------=
