
     Program PWSCF v.7.3.1 starts on 16Jun2025 at 14:31:29 

     This program is part of the open-source Quantum ESPRESSO suite
     for quantum simulation of materials; please cite
         "P. Giannozzi et al., J. Phys.:Condens. Matter 21 395502 (2009);
         "P. Giannozzi et al., J. Phys.:Condens. Matter 29 465901 (2017);
         "P. Giannozzi et al., J. Chem. Phys. 152 154105 (2020);
          URL http://www.quantum-espresso.org", 
     in publications or presentations arising from this work. More details at
     http://www.quantum-espresso.org/quote

     Parallel version (MPI), running on   640 processors

     MPI processes distributed on     5 nodes
     430592 MiB available memory on the printing compute node when the environment starts

     Reading input from In0.0Ga1.0As0.5Sb0.5_cube_3x3x3.7.scf.in
Warning: card &CELL ignored
Warning: card   CELL_DOFREE = 'ALL', ignored
Warning: card / ignored

     Current dimensions of program PWSCF are:
     Max number of different atomic species (ntypx) = 10
     Max number of k-points (npk) =  40000
     Max angular momentum in pseudopotentials (lmaxx) =  4

     K-points division:     npool     =       8
     R & G space division:  proc/nbgrp/npool/nimage =      80
     Subspace diagonalization in iterative solution of the eigenvalue problem:
     one sub-group per band group will be used
     custom distributed-memory algorithm (size of sub-group:  8*  8 procs)


     Parallelization info
     --------------------
     sticks:   dense  smooth     PW     G-vecs:    dense   smooth      PW
     Min         533     533    137                83025    83025   10849
     Max         534     534    138                83034    83034   10856
     Sum       42697   42697  11009              6642417  6642417  868215

     Using Slab Decomposition



     bravais-lattice index     =            1
     lattice parameter (alat)  =      33.4444  a.u.
     unit-cell volume          =   37408.4581 (a.u.)^3
     number of atoms/cell      =          216
     number of atomic types    =            4
     number of electrons       =      3024.00
     number of Kohn-Sham states=         2160
     kinetic-energy cutoff     =     120.0000  Ry
     charge density cutoff     =     480.0000  Ry
     scf convergence threshold =      1.0E-05
     mixing beta               =       0.6500
     number of iterations used =            8  plain     mixing
     Exchange-correlation= PBE
                           (   1   4   3   4   0   0   0)
     Hubbard projectors: atomic
     Hubbard parameters of DFT+U (Dudarev formulation) in eV:
     U(As-4p) =  5.8400
     U(Ga-4p) = -2.8000
     U(In-5p) = -1.0150
     U(Sb-5p) =  4.8900

     Internal variables: lda_plus_u =T, lda_plus_u_kind = 0

     celldm(1)=  33.444389  celldm(2)=   0.000000  celldm(3)=   0.000000
     celldm(4)=   0.000000  celldm(5)=   0.000000  celldm(6)=   0.000000

     crystal axes: (cart. coord. in units of alat)
               a(1) = (   1.000000   0.000000   0.000000 )  
               a(2) = (   0.000000   1.000000   0.000000 )  
               a(3) = (   0.000000   0.000000   1.000000 )  

     reciprocal axes: (cart. coord. in units 2 pi/alat)
               b(1) = (  1.000000  0.000000  0.000000 )  
               b(2) = (  0.000000  1.000000  0.000000 )  
               b(3) = (  0.000000  0.000000  1.000000 )  


     PseudoPot. # 1 for As read from file:
     /work/i254/i254/gentles/data/pseudos/As.pbe.NC-SR.standard.v0.5.UPF
     MD5 check sum: bfe1a874457ce592347346129958e7cf
     Pseudo is Norm-conserving + core correction, Zval = 15.0
     Generated using ONCVPSP code by D. R. Hamann
     Using radial grid of 1358 points,  6 beta functions with: 
                l(1) =   0
                l(2) =   0
                l(3) =   1
                l(4) =   1
                l(5) =   2
                l(6) =   2

     PseudoPot. # 2 for Ga read from file:
     /work/i254/i254/gentles/data/pseudos/Ga.pbe.NC-SR.standard.v0.5.UPF
     MD5 check sum: 2bb81bf6f0a8d9832cf3329850435ecf
     Pseudo is Norm-conserving + core correction, Zval = 13.0
     Generated using ONCVPSP code by D. R. Hamann
     Using radial grid of 1902 points,  6 beta functions with: 
                l(1) =   0
                l(2) =   0
                l(3) =   1
                l(4) =   1
                l(5) =   2
                l(6) =   2

     PseudoPot. # 3 for In read from file:
     /work/i254/i254/gentles/data/pseudos/In.pbe.NC-SR.standard.v0.5.UPF
     MD5 check sum: 835f4bf908c982ff75c88e16816a8d7f
     Pseudo is Norm-conserving + core correction, Zval = 13.0
     Generated using ONCVPSP code by D. R. Hamann
     Using radial grid of 1964 points,  6 beta functions with: 
                l(1) =   0
                l(2) =   0
                l(3) =   1
                l(4) =   1
                l(5) =   2
                l(6) =   2

     PseudoPot. # 4 for Sb read from file:
     /work/i254/i254/gentles/data/pseudos/Sb.pbe.NC-SR.standard.v0.5.UPF
     MD5 check sum: 127f69b6101c45666faeae1b5d611565
     Pseudo is Norm-conserving + core correction, Zval = 15.0
     Generated using ONCVPSP code by D. R. Hamann
     Using radial grid of 1434 points,  6 beta functions with: 
                l(1) =   0
                l(2) =   0
                l(3) =   1
                l(4) =   1
                l(5) =   2
                l(6) =   2

     atomic species   valence    mass     pseudopotential
     As               15.00    74.92160     As( 1.00)
     Ga               13.00    69.72300     Ga( 1.00)
     In               13.00   114.81800     In( 1.00)
     Sb               15.00   121.76000     Sb( 1.00)

     No symmetry found



   Cartesian axes

     site n.     atom                  positions (alat units)
         1        Ga     tau(   1) = (  -0.0053630   0.0047160  -0.0014520  )
         2        Ga     tau(   2) = (   0.0008360   0.1674500   0.1672880  )
         3        Ga     tau(   3) = (   0.1712400   0.0024640   0.1728960  )
         4        Ga     tau(   4) = (   0.1728040   0.1739130  -0.0024930  )
         5        Sb     tau(   5) = (   0.0878270   0.0852970   0.0820830  )
         6        Sb     tau(   6) = (   0.0890110   0.2517400   0.2504940  )
         7        As     tau(   7) = (   0.2551980   0.0836670   0.2484990  )
         8        As     tau(   8) = (   0.2542580   0.2503520   0.0823330  )
         9        Ga     tau(   9) = (  -0.0066530  -0.0065860   0.3396010  )
        10        Ga     tau(  10) = (   0.0029080   0.1710480   0.5008600  )
        11        Ga     tau(  11) = (   0.1726910   0.0036490   0.5029080  )
        12        Ga     tau(  12) = (   0.1767960   0.1642930   0.3308790  )
        13        Sb     tau(  13) = (   0.0853620   0.0834060   0.4153480  )
        14        As     tau(  14) = (   0.0838950   0.2508340   0.5797910  )
        15        As     tau(  15) = (   0.2519500   0.0870710   0.5810070  )
        16        As     tau(  16) = (   0.2497060   0.2480600   0.4145640  )
        17        Ga     tau(  17) = (  -0.0010110  -0.0013940   0.6676650  )
        18        Ga     tau(  18) = (  -0.0010570   0.1681980   0.8417560  )
        19        Ga     tau(  19) = (   0.1757700   0.0057150   0.8397130  )
        20        Ga     tau(  20) = (   0.1674290   0.1689240   0.6576380  )
        21        Sb     tau(  21) = (   0.0853290   0.0856650   0.7516540  )
        22        As     tau(  22) = (   0.0830290   0.2492040   0.9190150  )
        23        As     tau(  23) = (   0.2555930   0.0886090   0.9202920  )
        24        Sb     tau(  24) = (   0.2525120   0.2467330   0.7522750  )
        25        Ga     tau(  25) = (   0.0000950   0.3340580  -0.0071310  )
        26        Ga     tau(  26) = (  -0.0056190   0.5044950   0.1637630  )
        27        Ga     tau(  27) = (   0.1765110   0.3344160   0.1650610  )
        28        Ga     tau(  28) = (   0.1753120   0.5050370   0.0075030  )
        29        Sb     tau(  29) = (   0.0841640   0.4175340   0.0831510  )
        30        Sb     tau(  30) = (   0.0861670   0.5851060   0.2487720  )
        31        As     tau(  31) = (   0.2517530   0.4176030   0.2489700  )
        32        As     tau(  32) = (   0.2569960   0.5850100   0.0858370  )
        33        Ga     tau(  33) = (   0.0049240   0.3393740   0.3359710  )
        34        Ga     tau(  34) = (  -0.0007990   0.4908520   0.4984660  )
        35        Ga     tau(  35) = (   0.1634280   0.3272170   0.4939260  )
        36        Ga     tau(  36) = (   0.1692860   0.4958630   0.3352050  )
        37        As     tau(  37) = (   0.0862230   0.4151940   0.4171000  )
        38        Sb     tau(  38) = (   0.0823840   0.5839180   0.5785860  )
        39        Sb     tau(  39) = (   0.2472400   0.4167380   0.5788030  )
        40        As     tau(  40) = (   0.2475580   0.5846130   0.4113660  )
        41        Ga     tau(  41) = (  -0.0009630   0.3316360   0.6575180  )
        42        Ga     tau(  42) = (  -0.0057670   0.4971690   0.8386090  )
        43        Ga     tau(  43) = (   0.1628670   0.3282770   0.8378430  )
        44        Ga     tau(  44) = (   0.1668420   0.5027340   0.6688930  )
        45        Sb     tau(  45) = (   0.0802250   0.4150020   0.7500690  )
        46        Sb     tau(  46) = (   0.0835900   0.5822190   0.9222340  )
        47        Sb     tau(  47) = (   0.2536650   0.4147560   0.9209340  )
        48        Sb     tau(  48) = (   0.2545130   0.5871790   0.7527310  )
        49        Ga     tau(  49) = (   0.0000250   0.6655690   0.0105890  )
        50        Ga     tau(  50) = (   0.0000510   0.8248540   0.1661000  )
        51        Ga     tau(  51) = (   0.1748370   0.6695140   0.1630240  )
        52        Ga     tau(  52) = (   0.1671590   0.8253480   0.0028780  )
        53        As     tau(  53) = (   0.0856120   0.7464650   0.0858350  )
        54        Sb     tau(  54) = (   0.0823330   0.9128490   0.2519070  )
        55        As     tau(  55) = (   0.2533640   0.7479580   0.2478930  )
        56        Sb     tau(  56) = (   0.2529950   0.9155240   0.0853620  )
        57        Ga     tau(  57) = (   0.0000300   0.6735850   0.3318130  )
        58        Ga     tau(  58) = (  -0.0046040   0.8302310   0.4942340  )
        59        Ga     tau(  59) = (   0.1688160   0.6691810   0.4927230  )
        60        Ga     tau(  60) = (   0.1683760   0.8241680   0.3325710  )
        61        As     tau(  61) = (   0.0825780   0.7500960   0.4152000  )
        62        Sb     tau(  62) = (   0.0828040   0.9150060   0.5793590  )
        63        As     tau(  63) = (   0.2498930   0.7478220   0.5805480  )
        64        Sb     tau(  64) = (   0.2524630   0.9163400   0.4137180  )
        65        Ga     tau(  65) = (  -0.0065800   0.6704260   0.6591250  )
        66        Ga     tau(  66) = (   0.0004390   0.8338500   0.8334900  )
        67        Ga     tau(  67) = (   0.1697740   0.6698260   0.8404710  )
        68        Ga     tau(  68) = (   0.1710120   0.8296470   0.6606280  )
        69        Sb     tau(  69) = (   0.0842300   0.7483720   0.7480350  )
        70        Sb     tau(  70) = (   0.0856710   0.9184060   0.9191350  )
        71        As     tau(  71) = (   0.2521890   0.7470210   0.9217070  )
        72        Sb     tau(  72) = (   0.2543170   0.9170380   0.7497230  )
        73        Ga     tau(  73) = (   0.3360140   0.0077700   0.0016200  )
        74        Ga     tau(  74) = (   0.3305780   0.1636160   0.1616040  )
        75        Ga     tau(  75) = (   0.4964200   0.0035010   0.1686040  )
        76        Ga     tau(  76) = (   0.4958530   0.1704810   0.0074980  )
        77        As     tau(  77) = (   0.4163790   0.0851820   0.0854040  )
        78        Sb     tau(  78) = (   0.4175540   0.2502380   0.2460880  )
        79        As     tau(  79) = (   0.5832230   0.0831860   0.2464710  )
        80        As     tau(  80) = (   0.5825250   0.2513710   0.0832830  )
        81        Ga     tau(  81) = (   0.3381150   0.0021090   0.3267720  )
        82        Ga     tau(  82) = (   0.3308580   0.1637970   0.4930020  )
        83        Ga     tau(  83) = (   0.4951550   0.0061560   0.4948540  )
        84        Ga     tau(  84) = (   0.5010030   0.1595530   0.3308230  )
        85        As     tau(  85) = (   0.4146200   0.0835320   0.4113110  )
        86        Sb     tau(  86) = (   0.4168000   0.2452610   0.5840690  )
        87        Sb     tau(  87) = (   0.5846960   0.0831280   0.5855050  )
        88        Sb     tau(  88) = (   0.5865130   0.2482320   0.4143720  )
        89        Ga     tau(  89) = (   0.3350090   0.0127560   0.6677440  )
        90        Ga     tau(  90) = (   0.3417480   0.1637490   0.8404340  )
        91        Ga     tau(  91) = (   0.5023250  -0.0012800   0.8260750  )
        92        Ga     tau(  92) = (   0.5031640   0.1672690   0.6778730  )
        93        As     tau(  93) = (   0.4196200   0.0851810   0.7535200  )
        94        As     tau(  94) = (   0.4196700   0.2486090   0.9215630  )
        95        Sb     tau(  95) = (   0.5802810   0.0877160   0.9175840  )
        96        As     tau(  96) = (   0.5841090   0.2514730   0.7541110  )
        97        Ga     tau(  97) = (   0.3406810   0.3288030   0.0051710  )
        98        Ga     tau(  98) = (   0.3352290   0.4982050   0.1658610  )
        99        Ga     tau(  99) = (   0.5060430   0.3388120   0.1619300  )
       100        Ga     tau( 100) = (   0.4970700   0.4944800  -0.0038100  )
       101        As     tau( 101) = (   0.4185630   0.4161350   0.0831770  )
       102        As     tau( 102) = (   0.4132670   0.5806540   0.2457920  )
       103        As     tau( 103) = (   0.5854350   0.4181330   0.2465370  )
       104        Sb     tau( 104) = (   0.5797630   0.5826960   0.0826460  )
       105        Ga     tau( 105) = (   0.3263720   0.3321180   0.3315110  )
       106        Ga     tau( 106) = (   0.3286260   0.5073550   0.4939400  )
       107        Ga     tau( 107) = (   0.4999810   0.3330280   0.5000350  )
       108        Ga     tau( 108) = (   0.4996600   0.4997080   0.3204800  )
       109        Sb     tau( 109) = (   0.4152090   0.4186880   0.4123280  )
       110        Sb     tau( 110) = (   0.4171120   0.5861740   0.5836180  )
       111        Sb     tau( 111) = (   0.5869960   0.4159380   0.5862710  )
       112        Sb     tau( 112) = (   0.5859640   0.5811450   0.4101270  )
       113        Ga     tau( 113) = (   0.3341770   0.3357590   0.6669390  )
       114        Ga     tau( 114) = (   0.3403970   0.5045990   0.8401330  )
       115        Ga     tau( 115) = (   0.5037990   0.3272840   0.8399610  )
       116        Ga     tau( 116) = (   0.5062510   0.5059990   0.6720880  )
       117        Sb     tau( 117) = (   0.4221530   0.4166900   0.7543050  )
       118        As     tau( 118) = (   0.4195930   0.5850750   0.9208050  )
       119        As     tau( 119) = (   0.5812930   0.4124290   0.9169850  )
       120        As     tau( 120) = (   0.5834480   0.5835280   0.7571010  )
       121        Ga     tau( 121) = (   0.3359850   0.6657860   0.0024480  )
       122        Ga     tau( 122) = (   0.3389130   0.8304990   0.1701220  )
       123        Ga     tau( 123) = (   0.4897820   0.6650120   0.1653440  )
       124        Ga     tau( 124) = (   0.5007560   0.8250080   0.0014770  )
       125        As     tau( 125) = (   0.4151810   0.7486960   0.0838920  )
       126        As     tau( 126) = (   0.4168350   0.9195400   0.2468160  )
       127        Sb     tau( 127) = (   0.5824920   0.7489430   0.2483620  )
       128        Sb     tau( 128) = (   0.5831340   0.9157080   0.0858560  )
       129        Ga     tau( 129) = (   0.3289160   0.6596890   0.3259770  )
       130        Ga     tau( 130) = (   0.3304630   0.8294530   0.5037820  )
       131        Ga     tau( 131) = (   0.5030480   0.6675370   0.4962070  )
       132        Ga     tau( 132) = (   0.4963960   0.8398470   0.3274710  )
       133        Sb     tau( 133) = (   0.4137430   0.7487430   0.4112540  )
       134        Sb     tau( 134) = (   0.4161130   0.9191960   0.5860660  )
       135        Sb     tau( 135) = (   0.5856510   0.7506270   0.5863690  )
       136        Sb     tau( 136) = (   0.5848460   0.9200650   0.4142360  )
       137        Ga     tau( 137) = (   0.3355600   0.6765770   0.6668750  )
       138        Ga     tau( 138) = (   0.3341400   0.8246500   0.8365510  )
       139        Ga     tau( 139) = (   0.5007090   0.6647150   0.8373470  )
       140        Ga     tau( 140) = (   0.4989520   0.8335360   0.6763160  )
       141        As     tau( 141) = (   0.4188960   0.7483450   0.7549140  )
       142        Sb     tau( 142) = (   0.4183280   0.9157760   0.9171120  )
       143        As     tau( 143) = (   0.5824390   0.7488070   0.9161910  )
       144        As     tau( 144) = (   0.5835710   0.9136940   0.7501320  )
       145        Ga     tau( 145) = (   0.6666240   0.0059640   0.0045690  )
       146        Ga     tau( 146) = (   0.6623680   0.1686330   0.1656740  )
       147        Ga     tau( 147) = (   0.8236510   0.0011000   0.1665290  )
       148        Ga     tau( 148) = (   0.8256420   0.1639700  -0.0025570  )
       149        As     tau( 149) = (   0.7457040   0.0866820   0.0850920  )
       150        As     tau( 150) = (   0.7433820   0.2477250   0.2500440  )
       151        Sb     tau( 151) = (   0.9123630   0.0828800   0.2518970  )
       152        Sb     tau( 152) = (   0.9140020   0.2489360   0.0801400  )
       153        Ga     tau( 153) = (   0.6690680   0.0046010   0.3269300  )
       154        Ga     tau( 154) = (   0.6756090   0.1661880   0.5010100  )
       155        Ga     tau( 155) = (   0.8287980  -0.0052790   0.4937950  )
       156        Ga     tau( 156) = (   0.8232890   0.1678360   0.3341820  )
       157        As     tau( 157) = (   0.7490320   0.0815250   0.4150390  )
       158        As     tau( 158) = (   0.7492420   0.2530300   0.5832510  )
       159        Sb     tau( 159) = (   0.9143670   0.0824820   0.5795160  )
       160        Sb     tau( 160) = (   0.9135730   0.2535850   0.4164350  )
       161        Ga     tau( 161) = (   0.6663460  -0.0126110   0.6647680  )
       162        Ga     tau( 162) = (   0.6659460   0.1753120   0.8345800  )
       163        Ga     tau( 163) = (   0.8357960   0.0055750   0.8379390  )
       164        Ga     tau( 164) = (   0.8281520   0.1706230   0.6621140  )
       165        Sb     tau( 165) = (   0.7458140   0.0830360   0.7490090  )
       166        As     tau( 166) = (   0.7475530   0.2519100   0.9179260  )
       167        As     tau( 167) = (   0.9140180   0.0865970   0.9191430  )
       168        Sb     tau( 168) = (   0.9140340   0.2528290   0.7523160  )
       169        Ga     tau( 169) = (   0.6620050   0.3302060  -0.0022330  )
       170        Ga     tau( 170) = (   0.6667570   0.5039320   0.1732090  )
       171        Ga     tau( 171) = (   0.8267480   0.3257920   0.1710680  )
       172        Ga     tau( 172) = (   0.8404860   0.5012060   0.0023130  )
       173        Sb     tau( 173) = (   0.7483250   0.4167040   0.0845150  )
       174        As     tau( 174) = (   0.7502890   0.5857740   0.2502510  )
       175        Sb     tau( 175) = (   0.9127830   0.4171760   0.2504760  )
       176        As     tau( 176) = (   0.9145110   0.5859190   0.0859300  )
       177        Ga     tau( 177) = (   0.6678380   0.3370140   0.3276620  )
       178        Ga     tau( 178) = (   0.6704050   0.4944030   0.4935110  )
       179        Ga     tau( 179) = (   0.8274910   0.3377060   0.5018790  )
       180        Ga     tau( 180) = (   0.8244480   0.5017830   0.3333830  )
       181        As     tau( 181) = (   0.7489920   0.4150280   0.4128990  )
       182        Sb     tau( 182) = (   0.7502690   0.5817270   0.5840110  )
       183        As     tau( 183) = (   0.9146920   0.4129820   0.5809540  )
       184        Sb     tau( 184) = (   0.9158680   0.5839460   0.4163310  )
       185        Ga     tau( 185) = (   0.6691100   0.3277350   0.6724520  )
       186        Ga     tau( 186) = (   0.6609520   0.4934140   0.8324760  )
       187        Ga     tau( 187) = (   0.8271420   0.3386730   0.8399710  )
       188        Ga     tau( 188) = (   0.8323920   0.4885870   0.6668360  )
       189        As     tau( 189) = (   0.7469020   0.4132570   0.7525140  )
       190        Sb     tau( 190) = (   0.7475030   0.5820450   0.9169170  )
       191        As     tau( 191) = (   0.9144110   0.4168030   0.9186180  )
       192        Sb     tau( 192) = (   0.9128340   0.5821990   0.7478110  )
       193        Ga     tau( 193) = (   0.6650750   0.6734250   0.0016610  )
       194        Ga     tau( 194) = (   0.6741830   0.8332890   0.1687280  )
       195        Ga     tau( 195) = (   0.8321690   0.6651650   0.1679700  )
       196        Ga     tau( 196) = (   0.8268390   0.8272960   0.0046750  )
       197        As     tau( 197) = (   0.7493900   0.7474810   0.0873660  )
       198        As     tau( 198) = (   0.7503050   0.9175190   0.2507040  )
       199        As     tau( 199) = (   0.9144520   0.7492640   0.2485160  )
       200        Sb     tau( 200) = (   0.9133700   0.9155160   0.0847600  )
       201        Ga     tau( 201) = (   0.6756450   0.6694300   0.3330760  )
       202        Ga     tau( 202) = (   0.6739190   0.8328780   0.4973760  )
       203        Ga     tau( 203) = (   0.8332900   0.6746060   0.5003540  )
       204        Ga     tau( 204) = (   0.8335560   0.8340350   0.3296610  )
       205        As     tau( 205) = (   0.7541240   0.7528570   0.4139480  )
       206        As     tau( 206) = (   0.7505050   0.9139410   0.5795050  )
       207        As     tau( 207) = (   0.9135720   0.7538760   0.5806490  )
       208        As     tau( 208) = (   0.9116900   0.9114250   0.4158640  )
       209        Ga     tau( 209) = (   0.6656810   0.6633250   0.6768290  )
       210        Ga     tau( 210) = (   0.6608160   0.8308550   0.8312000  )
       211        Ga     tau( 211) = (   0.8258060   0.6712190   0.8277970  )
       212        Ga     tau( 212) = (   0.8265310   0.8300970   0.6611620  )
       213        As     tau( 213) = (   0.7451540   0.7522840   0.7484640  )
       214        Sb     tau( 214) = (   0.7468390   0.9166700   0.9180480  )
       215        Sb     tau( 215) = (   0.9157880   0.7471090   0.9189350  )
       216        Sb     tau( 216) = (   0.9111720   0.9146990   0.7495620  )

     number of k points=     8
                       cart. coord. in units 2pi/alat
        k(    1) = (   0.0000000   0.0000000   0.0000000), wk =   0.2500000
        k(    2) = (   0.0000000   0.0000000  -0.5000000), wk =   0.2500000
        k(    3) = (   0.0000000  -0.5000000  -0.5000000), wk =   0.2500000
        k(    4) = (  -0.5000000  -0.5000000  -0.5000000), wk =   0.2500000
        k(    5) = (  -0.5000000   0.0000000   0.0000000), wk =   0.2500000
        k(    6) = (   0.0000000  -0.5000000   0.0000000), wk =   0.2500000
        k(    7) = (  -0.5000000   0.0000000   0.5000000), wk =   0.2500000
        k(    8) = (  -0.5000000   0.5000000   0.0000000), wk =   0.2500000

     Dense  grid:  6642417 G-vectors     FFT dimensions: ( 240, 240, 240)

     Estimated max dynamical RAM per process >       2.57 GB

     Estimated total dynamical RAM >    1633.62 GB

     Initial potential from superposition of free atoms

     starting charge    3023.6679, renormalised to    3024.0000

     STARTING HUBBARD OCCUPATIONS:

     =================== HUBBARD OCCUPATIONS ===================
     ------------------------ ATOM    1 ------------------------
     Tr[ns(  1)] =   1.00000
     eigenvalues:
       0.167  0.167  0.167
     eigenvectors (columns):
       1.000  0.000  0.000
       0.000  1.000  0.000
       0.000  0.000  1.000
     occupation matrix ns (before diag.):
       0.167  0.000  0.000
       0.000  0.167  0.000
       0.000  0.000  0.167
     ------------------------ ATOM    2 ------------------------
     Tr[ns(  2)] =   1.00000
     eigenvalues:
       0.167  0.167  0.167
     eigenvectors (columns):
       1.000  0.000  0.000
       0.000  1.000  0.000
       0.000  0.000  1.000
     occupation matrix ns (before diag.):
       0.167  0.000  0.000
       0.000  0.167  0.000
       0.000  0.000  0.167
     ------------------------ ATOM    3 ------------------------
     Tr[ns(  3)] =   1.00000
     eigenvalues:
       0.167  0.167  0.167
     eigenvectors (columns):
       1.000  0.000  0.000
       0.000  1.000  0.000
       0.000  0.000  1.000
     occupation matrix ns (before diag.):
       0.167  0.000  0.000
       0.000  0.167  0.000
       0.000  0.000  0.167
     ------------------------ ATOM    4 ------------------------
     Tr[ns(  4)] =   1.00000
     eigenvalues:
       0.167  0.167  0.167
     eigenvectors (columns):
       1.000  0.000  0.000
       0.000  1.000  0.000
       0.000  0.000  1.000
     occupation matrix ns (before diag.):
       0.167  0.000  0.000
       0.000  0.167  0.000
       0.000  0.000  0.167
     ------------------------ ATOM    5 ------------------------
     Tr[ns(  5)] =   3.00000
     eigenvalues:
       0.500  0.500  0.500
     eigenvectors (columns):
       1.000  0.000  0.000
       0.000  1.000  0.000
       0.000  0.000  1.000
     occupation matrix ns (before diag.):
       0.500  0.000  0.000
       0.000  0.500  0.000
       0.000  0.000  0.500
     ------------------------ ATOM    6 ------------------------
     Tr[ns(  6)] =   3.00000
     eigenvalues:
       0.500  0.500  0.500
     eigenvectors (columns):
       1.000  0.000  0.000
       0.000  1.000  0.000
       0.000  0.000  1.000
     occupation matrix ns (before diag.):
       0.500  0.000  0.000
       0.000  0.500  0.000
       0.000  0.000  0.500
     ------------------------ ATOM    7 ------------------------
     Tr[ns(  7)] =   3.00000
     eigenvalues:
       0.500  0.500  0.500
     eigenvectors (columns):
       1.000  0.000  0.000
       0.000  1.000  0.000
       0.000  0.000  1.000
     occupation matrix ns (before diag.):
       0.500  0.000  0.000
       0.000  0.500  0.000
       0.000  0.000  0.500
     ------------------------ ATOM    8 ------------------------
     Tr[ns(  8)] =   3.00000
     eigenvalues:
       0.500  0.500  0.500
     eigenvectors (columns):
       1.000  0.000  0.000
       0.000  1.000  0.000
       0.000  0.000  1.000
     occupation matrix ns (before diag.):
       0.500  0.000  0.000
       0.000  0.500  0.000
       0.000  0.000  0.500
     ------------------------ ATOM    9 ------------------------
     Tr[ns(  9)] =   1.00000
     eigenvalues:
       0.167  0.167  0.167
     eigenvectors (columns):
       1.000  0.000  0.000
       0.000  1.000  0.000
       0.000  0.000  1.000
     occupation matrix ns (before diag.):
       0.167  0.000  0.000
       0.000  0.167  0.000
       0.000  0.000  0.167
     ------------------------ ATOM   10 ------------------------
     Tr[ns( 10)] =   1.00000
     eigenvalues:
       0.167  0.167  0.167
     eigenvectors (columns):
       1.000  0.000  0.000
       0.000  1.000  0.000
       0.000  0.000  1.000
     occupation matrix ns (before diag.):
       0.167  0.000  0.000
       0.000  0.167  0.000
       0.000  0.000  0.167
     ------------------------ ATOM   11 ------------------------
     Tr[ns( 11)] =   1.00000
     eigenvalues:
       0.167  0.167  0.167
     eigenvectors (columns):
       1.000  0.000  0.000
       0.000  1.000  0.000
       0.000  0.000  1.000
     occupation matrix ns (before diag.):
       0.167  0.000  0.000
       0.000  0.167  0.000
       0.000  0.000  0.167
     ------------------------ ATOM   12 ------------------------
     Tr[ns( 12)] =   1.00000
     eigenvalues:
       0.167  0.167  0.167
     eigenvectors (columns):
       1.000  0.000  0.000
       0.000  1.000  0.000
       0.000  0.000  1.000
     occupation matrix ns (before diag.):
       0.167  0.000  0.000
       0.000  0.167  0.000
       0.000  0.000  0.167
     ------------------------ ATOM   13 ------------------------
     Tr[ns( 13)] =   3.00000
     eigenvalues:
       0.500  0.500  0.500
     eigenvectors (columns):
       1.000  0.000  0.000
       0.000  1.000  0.000
       0.000  0.000  1.000
     occupation matrix ns (before diag.):
       0.500  0.000  0.000
       0.000  0.500  0.000
       0.000  0.000  0.500
     ------------------------ ATOM   14 ------------------------
     Tr[ns( 14)] =   3.00000
     eigenvalues:
       0.500  0.500  0.500
     eigenvectors (columns):
       1.000  0.000  0.000
       0.000  1.000  0.000
       0.000  0.000  1.000
     occupation matrix ns (before diag.):
       0.500  0.000  0.000
       0.000  0.500  0.000
       0.000  0.000  0.500
     ------------------------ ATOM   15 ------------------------
     Tr[ns( 15)] =   3.00000
     eigenvalues:
       0.500  0.500  0.500
     eigenvectors (columns):
       1.000  0.000  0.000
       0.000  1.000  0.000
       0.000  0.000  1.000
     occupation matrix ns (before diag.):
       0.500  0.000  0.000
       0.000  0.500  0.000
       0.000  0.000  0.500
     ------------------------ ATOM   16 ------------------------
     Tr[ns( 16)] =   3.00000
     eigenvalues:
       0.500  0.500  0.500
     eigenvectors (columns):
       1.000  0.000  0.000
       0.000  1.000  0.000
       0.000  0.000  1.000
     occupation matrix ns (before diag.):
       0.500  0.000  0.000
       0.000  0.500  0.000
       0.000  0.000  0.500
     ------------------------ ATOM   17 ------------------------
     Tr[ns( 17)] =   1.00000
     eigenvalues:
       0.167  0.167  0.167
     eigenvectors (columns):
       1.000  0.000  0.000
       0.000  1.000  0.000
       0.000  0.000  1.000
     occupation matrix ns (before diag.):
       0.167  0.000  0.000
       0.000  0.167  0.000
       0.000  0.000  0.167
     ------------------------ ATOM   18 ------------------------
     Tr[ns( 18)] =   1.00000
     eigenvalues:
       0.167  0.167  0.167
     eigenvectors (columns):
       1.000  0.000  0.000
       0.000  1.000  0.000
       0.000  0.000  1.000
     occupation matrix ns (before diag.):
       0.167  0.000  0.000
       0.000  0.167  0.000
       0.000  0.000  0.167
     ------------------------ ATOM   19 ------------------------
     Tr[ns( 19)] =   1.00000
     eigenvalues:
       0.167  0.167  0.167
     eigenvectors (columns):
       1.000  0.000  0.000
       0.000  1.000  0.000
       0.000  0.000  1.000
     occupation matrix ns (before diag.):
       0.167  0.000  0.000
       0.000  0.167  0.000
       0.000  0.000  0.167
     ------------------------ ATOM   20 ------------------------
     Tr[ns( 20)] =   1.00000
     eigenvalues:
       0.167  0.167  0.167
     eigenvectors (columns):
       1.000  0.000  0.000
       0.000  1.000  0.000
       0.000  0.000  1.000
     occupation matrix ns (before diag.):
       0.167  0.000  0.000
       0.000  0.167  0.000
       0.000  0.000  0.167
     ------------------------ ATOM   21 ------------------------
     Tr[ns( 21)] =   3.00000
     eigenvalues:
       0.500  0.500  0.500
     eigenvectors (columns):
       1.000  0.000  0.000
       0.000  1.000  0.000
       0.000  0.000  1.000
     occupation matrix ns (before diag.):
       0.500  0.000  0.000
       0.000  0.500  0.000
       0.000  0.000  0.500
     ------------------------ ATOM   22 ------------------------
     Tr[ns( 22)] =   3.00000
     eigenvalues:
       0.500  0.500  0.500
     eigenvectors (columns):
       1.000  0.000  0.000
       0.000  1.000  0.000
       0.000  0.000  1.000
     occupation matrix ns (before diag.):
       0.500  0.000  0.000
       0.000  0.500  0.000
       0.000  0.000  0.500
     ------------------------ ATOM   23 ------------------------
     Tr[ns( 23)] =   3.00000
     eigenvalues:
       0.500  0.500  0.500
     eigenvectors (columns):
       1.000  0.000  0.000
       0.000  1.000  0.000
       0.000  0.000  1.000
     occupation matrix ns (before diag.):
       0.500  0.000  0.000
       0.000  0.500  0.000
       0.000  0.000  0.500
     ------------------------ ATOM   24 ------------------------
     Tr[ns( 24)] =   3.00000
     eigenvalues:
       0.500  0.500  0.500
     eigenvectors (columns):
       1.000  0.000  0.000
       0.000  1.000  0.000
       0.000  0.000  1.000
     occupation matrix ns (before diag.):
       0.500  0.000  0.000
       0.000  0.500  0.000
       0.000  0.000  0.500
     ------------------------ ATOM   25 ------------------------
     Tr[ns( 25)] =   1.00000
     eigenvalues:
       0.167  0.167  0.167
     eigenvectors (columns):
       1.000  0.000  0.000
       0.000  1.000  0.000
       0.000  0.000  1.000
     occupation matrix ns (before diag.):
       0.167  0.000  0.000
       0.000  0.167  0.000
       0.000  0.000  0.167
     ------------------------ ATOM   26 ------------------------
     Tr[ns( 26)] =   1.00000
     eigenvalues:
       0.167  0.167  0.167
     eigenvectors (columns):
       1.000  0.000  0.000
       0.000  1.000  0.000
       0.000  0.000  1.000
     occupation matrix ns (before diag.):
       0.167  0.000  0.000
       0.000  0.167  0.000
       0.000  0.000  0.167
     ------------------------ ATOM   27 ------------------------
     Tr[ns( 27)] =   1.00000
     eigenvalues:
       0.167  0.167  0.167
     eigenvectors (columns):
       1.000  0.000  0.000
       0.000  1.000  0.000
       0.000  0.000  1.000
     occupation matrix ns (before diag.):
       0.167  0.000  0.000
       0.000  0.167  0.000
       0.000  0.000  0.167
     ------------------------ ATOM   28 ------------------------
     Tr[ns( 28)] =   1.00000
     eigenvalues:
       0.167  0.167  0.167
     eigenvectors (columns):
       1.000  0.000  0.000
       0.000  1.000  0.000
       0.000  0.000  1.000
     occupation matrix ns (before diag.):
       0.167  0.000  0.000
       0.000  0.167  0.000
       0.000  0.000  0.167
     ------------------------ ATOM   29 ------------------------
     Tr[ns( 29)] =   3.00000
     eigenvalues:
       0.500  0.500  0.500
     eigenvectors (columns):
       1.000  0.000  0.000
       0.000  1.000  0.000
       0.000  0.000  1.000
     occupation matrix ns (before diag.):
       0.500  0.000  0.000
       0.000  0.500  0.000
       0.000  0.000  0.500
     ------------------------ ATOM   30 ------------------------
     Tr[ns( 30)] =   3.00000
     eigenvalues:
       0.500  0.500  0.500
     eigenvectors (columns):
       1.000  0.000  0.000
       0.000  1.000  0.000
       0.000  0.000  1.000
     occupation matrix ns (before diag.):
       0.500  0.000  0.000
       0.000  0.500  0.000
       0.000  0.000  0.500
     ------------------------ ATOM   31 ------------------------
     Tr[ns( 31)] =   3.00000
     eigenvalues:
       0.500  0.500  0.500
     eigenvectors (columns):
       1.000  0.000  0.000
       0.000  1.000  0.000
       0.000  0.000  1.000
     occupation matrix ns (before diag.):
       0.500  0.000  0.000
       0.000  0.500  0.000
       0.000  0.000  0.500
     ------------------------ ATOM   32 ------------------------
     Tr[ns( 32)] =   3.00000
     eigenvalues:
       0.500  0.500  0.500
     eigenvectors (columns):
       1.000  0.000  0.000
       0.000  1.000  0.000
       0.000  0.000  1.000
     occupation matrix ns (before diag.):
       0.500  0.000  0.000
       0.000  0.500  0.000
       0.000  0.000  0.500
     ------------------------ ATOM   33 ------------------------
     Tr[ns( 33)] =   1.00000
     eigenvalues:
       0.167  0.167  0.167
     eigenvectors (columns):
       1.000  0.000  0.000
       0.000  1.000  0.000
       0.000  0.000  1.000
     occupation matrix ns (before diag.):
       0.167  0.000  0.000
       0.000  0.167  0.000
       0.000  0.000  0.167
     ------------------------ ATOM   34 ------------------------
     Tr[ns( 34)] =   1.00000
     eigenvalues:
       0.167  0.167  0.167
     eigenvectors (columns):
       1.000  0.000  0.000
       0.000  1.000  0.000
       0.000  0.000  1.000
     occupation matrix ns (before diag.):
       0.167  0.000  0.000
       0.000  0.167  0.000
       0.000  0.000  0.167
     ------------------------ ATOM   35 ------------------------
     Tr[ns( 35)] =   1.00000
     eigenvalues:
       0.167  0.167  0.167
     eigenvectors (columns):
       1.000  0.000  0.000
       0.000  1.000  0.000
       0.000  0.000  1.000
     occupation matrix ns (before diag.):
       0.167  0.000  0.000
       0.000  0.167  0.000
       0.000  0.000  0.167
     ------------------------ ATOM   36 ------------------------
     Tr[ns( 36)] =   1.00000
     eigenvalues:
       0.167  0.167  0.167
     eigenvectors (columns):
       1.000  0.000  0.000
       0.000  1.000  0.000
       0.000  0.000  1.000
     occupation matrix ns (before diag.):
       0.167  0.000  0.000
       0.000  0.167  0.000
       0.000  0.000  0.167
     ------------------------ ATOM   37 ------------------------
     Tr[ns( 37)] =   3.00000
     eigenvalues:
       0.500  0.500  0.500
     eigenvectors (columns):
       1.000  0.000  0.000
       0.000  1.000  0.000
       0.000  0.000  1.000
     occupation matrix ns (before diag.):
       0.500  0.000  0.000
       0.000  0.500  0.000
       0.000  0.000  0.500
     ------------------------ ATOM   38 ------------------------
     Tr[ns( 38)] =   3.00000
     eigenvalues:
       0.500  0.500  0.500
     eigenvectors (columns):
       1.000  0.000  0.000
       0.000  1.000  0.000
       0.000  0.000  1.000
     occupation matrix ns (before diag.):
       0.500  0.000  0.000
       0.000  0.500  0.000
       0.000  0.000  0.500
     ------------------------ ATOM   39 ------------------------
     Tr[ns( 39)] =   3.00000
     eigenvalues:
       0.500  0.500  0.500
     eigenvectors (columns):
       1.000  0.000  0.000
       0.000  1.000  0.000
       0.000  0.000  1.000
     occupation matrix ns (before diag.):
       0.500  0.000  0.000
       0.000  0.500  0.000
       0.000  0.000  0.500
     ------------------------ ATOM   40 ------------------------
     Tr[ns( 40)] =   3.00000
     eigenvalues:
       0.500  0.500  0.500
     eigenvectors (columns):
       1.000  0.000  0.000
       0.000  1.000  0.000
       0.000  0.000  1.000
     occupation matrix ns (before diag.):
       0.500  0.000  0.000
       0.000  0.500  0.000
       0.000  0.000  0.500
     ------------------------ ATOM   41 ------------------------
     Tr[ns( 41)] =   1.00000
     eigenvalues:
       0.167  0.167  0.167
     eigenvectors (columns):
       1.000  0.000  0.000
       0.000  1.000  0.000
       0.000  0.000  1.000
     occupation matrix ns (before diag.):
       0.167  0.000  0.000
       0.000  0.167  0.000
       0.000  0.000  0.167
     ------------------------ ATOM   42 ------------------------
     Tr[ns( 42)] =   1.00000
     eigenvalues:
       0.167  0.167  0.167
     eigenvectors (columns):
       1.000  0.000  0.000
       0.000  1.000  0.000
       0.000  0.000  1.000
     occupation matrix ns (before diag.):
       0.167  0.000  0.000
       0.000  0.167  0.000
       0.000  0.000  0.167
     ------------------------ ATOM   43 ------------------------
     Tr[ns( 43)] =   1.00000
     eigenvalues:
       0.167  0.167  0.167
     eigenvectors (columns):
       1.000  0.000  0.000
       0.000  1.000  0.000
       0.000  0.000  1.000
     occupation matrix ns (before diag.):
       0.167  0.000  0.000
       0.000  0.167  0.000
       0.000  0.000  0.167
     ------------------------ ATOM   44 ------------------------
     Tr[ns( 44)] =   1.00000
     eigenvalues:
       0.167  0.167  0.167
     eigenvectors (columns):
       1.000  0.000  0.000
       0.000  1.000  0.000
       0.000  0.000  1.000
     occupation matrix ns (before diag.):
       0.167  0.000  0.000
       0.000  0.167  0.000
       0.000  0.000  0.167
     ------------------------ ATOM   45 ------------------------
     Tr[ns( 45)] =   3.00000
     eigenvalues:
       0.500  0.500  0.500
     eigenvectors (columns):
       1.000  0.000  0.000
       0.000  1.000  0.000
       0.000  0.000  1.000
     occupation matrix ns (before diag.):
       0.500  0.000  0.000
       0.000  0.500  0.000
       0.000  0.000  0.500
     ------------------------ ATOM   46 ------------------------
     Tr[ns( 46)] =   3.00000
     eigenvalues:
       0.500  0.500  0.500
     eigenvectors (columns):
       1.000  0.000  0.000
       0.000  1.000  0.000
       0.000  0.000  1.000
     occupation matrix ns (before diag.):
       0.500  0.000  0.000
       0.000  0.500  0.000
       0.000  0.000  0.500
     ------------------------ ATOM   47 ------------------------
     Tr[ns( 47)] =   3.00000
     eigenvalues:
       0.500  0.500  0.500
     eigenvectors (columns):
       1.000  0.000  0.000
       0.000  1.000  0.000
       0.000  0.000  1.000
     occupation matrix ns (before diag.):
       0.500  0.000  0.000
       0.000  0.500  0.000
       0.000  0.000  0.500
     ------------------------ ATOM   48 ------------------------
     Tr[ns( 48)] =   3.00000
     eigenvalues:
       0.500  0.500  0.500
     eigenvectors (columns):
       1.000  0.000  0.000
       0.000  1.000  0.000
       0.000  0.000  1.000
     occupation matrix ns (before diag.):
       0.500  0.000  0.000
       0.000  0.500  0.000
       0.000  0.000  0.500
     ------------------------ ATOM   49 ------------------------
     Tr[ns( 49)] =   1.00000
     eigenvalues:
       0.167  0.167  0.167
     eigenvectors (columns):
       1.000  0.000  0.000
       0.000  1.000  0.000
       0.000  0.000  1.000
     occupation matrix ns (before diag.):
       0.167  0.000  0.000
       0.000  0.167  0.000
       0.000  0.000  0.167
     ------------------------ ATOM   50 ------------------------
     Tr[ns( 50)] =   1.00000
     eigenvalues:
       0.167  0.167  0.167
     eigenvectors (columns):
       1.000  0.000  0.000
       0.000  1.000  0.000
       0.000  0.000  1.000
     occupation matrix ns (before diag.):
       0.167  0.000  0.000
       0.000  0.167  0.000
       0.000  0.000  0.167
     ------------------------ ATOM   51 ------------------------
     Tr[ns( 51)] =   1.00000
     eigenvalues:
       0.167  0.167  0.167
     eigenvectors (columns):
       1.000  0.000  0.000
       0.000  1.000  0.000
       0.000  0.000  1.000
     occupation matrix ns (before diag.):
       0.167  0.000  0.000
       0.000  0.167  0.000
       0.000  0.000  0.167
     ------------------------ ATOM   52 ------------------------
     Tr[ns( 52)] =   1.00000
     eigenvalues:
       0.167  0.167  0.167
     eigenvectors (columns):
       1.000  0.000  0.000
       0.000  1.000  0.000
       0.000  0.000  1.000
     occupation matrix ns (before diag.):
       0.167  0.000  0.000
       0.000  0.167  0.000
       0.000  0.000  0.167
     ------------------------ ATOM   53 ------------------------
     Tr[ns( 53)] =   3.00000
     eigenvalues:
       0.500  0.500  0.500
     eigenvectors (columns):
       1.000  0.000  0.000
       0.000  1.000  0.000
       0.000  0.000  1.000
     occupation matrix ns (before diag.):
       0.500  0.000  0.000
       0.000  0.500  0.000
       0.000  0.000  0.500
     ------------------------ ATOM   54 ------------------------
     Tr[ns( 54)] =   3.00000
     eigenvalues:
       0.500  0.500  0.500
     eigenvectors (columns):
       1.000  0.000  0.000
       0.000  1.000  0.000
       0.000  0.000  1.000
     occupation matrix ns (before diag.):
       0.500  0.000  0.000
       0.000  0.500  0.000
       0.000  0.000  0.500
     ------------------------ ATOM   55 ------------------------
     Tr[ns( 55)] =   3.00000
     eigenvalues:
       0.500  0.500  0.500
     eigenvectors (columns):
       1.000  0.000  0.000
       0.000  1.000  0.000
       0.000  0.000  1.000
     occupation matrix ns (before diag.):
       0.500  0.000  0.000
       0.000  0.500  0.000
       0.000  0.000  0.500
     ------------------------ ATOM   56 ------------------------
     Tr[ns( 56)] =   3.00000
     eigenvalues:
       0.500  0.500  0.500
     eigenvectors (columns):
       1.000  0.000  0.000
       0.000  1.000  0.000
       0.000  0.000  1.000
     occupation matrix ns (before diag.):
       0.500  0.000  0.000
       0.000  0.500  0.000
       0.000  0.000  0.500
     ------------------------ ATOM   57 ------------------------
     Tr[ns( 57)] =   1.00000
     eigenvalues:
       0.167  0.167  0.167
     eigenvectors (columns):
       1.000  0.000  0.000
       0.000  1.000  0.000
       0.000  0.000  1.000
     occupation matrix ns (before diag.):
       0.167  0.000  0.000
       0.000  0.167  0.000
       0.000  0.000  0.167
     ------------------------ ATOM   58 ------------------------
     Tr[ns( 58)] =   1.00000
     eigenvalues:
       0.167  0.167  0.167
     eigenvectors (columns):
       1.000  0.000  0.000
       0.000  1.000  0.000
       0.000  0.000  1.000
     occupation matrix ns (before diag.):
       0.167  0.000  0.000
       0.000  0.167  0.000
       0.000  0.000  0.167
     ------------------------ ATOM   59 ------------------------
     Tr[ns( 59)] =   1.00000
     eigenvalues:
       0.167  0.167  0.167
     eigenvectors (columns):
       1.000  0.000  0.000
       0.000  1.000  0.000
       0.000  0.000  1.000
     occupation matrix ns (before diag.):
       0.167  0.000  0.000
       0.000  0.167  0.000
       0.000  0.000  0.167
     ------------------------ ATOM   60 ------------------------
     Tr[ns( 60)] =   1.00000
     eigenvalues:
       0.167  0.167  0.167
     eigenvectors (columns):
       1.000  0.000  0.000
       0.000  1.000  0.000
       0.000  0.000  1.000
     occupation matrix ns (before diag.):
       0.167  0.000  0.000
       0.000  0.167  0.000
       0.000  0.000  0.167
     ------------------------ ATOM   61 ------------------------
     Tr[ns( 61)] =   3.00000
     eigenvalues:
       0.500  0.500  0.500
     eigenvectors (columns):
       1.000  0.000  0.000
       0.000  1.000  0.000
       0.000  0.000  1.000
     occupation matrix ns (before diag.):
       0.500  0.000  0.000
       0.000  0.500  0.000
       0.000  0.000  0.500
     ------------------------ ATOM   62 ------------------------
     Tr[ns( 62)] =   3.00000
     eigenvalues:
       0.500  0.500  0.500
     eigenvectors (columns):
       1.000  0.000  0.000
       0.000  1.000  0.000
       0.000  0.000  1.000
     occupation matrix ns (before diag.):
       0.500  0.000  0.000
       0.000  0.500  0.000
       0.000  0.000  0.500
     ------------------------ ATOM   63 ------------------------
     Tr[ns( 63)] =   3.00000
     eigenvalues:
       0.500  0.500  0.500
     eigenvectors (columns):
       1.000  0.000  0.000
       0.000  1.000  0.000
       0.000  0.000  1.000
     occupation matrix ns (before diag.):
       0.500  0.000  0.000
       0.000  0.500  0.000
       0.000  0.000  0.500
     ------------------------ ATOM   64 ------------------------
     Tr[ns( 64)] =   3.00000
     eigenvalues:
       0.500  0.500  0.500
     eigenvectors (columns):
       1.000  0.000  0.000
       0.000  1.000  0.000
       0.000  0.000  1.000
     occupation matrix ns (before diag.):
       0.500  0.000  0.000
       0.000  0.500  0.000
       0.000  0.000  0.500
     ------------------------ ATOM   65 ------------------------
     Tr[ns( 65)] =   1.00000
     eigenvalues:
       0.167  0.167  0.167
     eigenvectors (columns):
       1.000  0.000  0.000
       0.000  1.000  0.000
       0.000  0.000  1.000
     occupation matrix ns (before diag.):
       0.167  0.000  0.000
       0.000  0.167  0.000
       0.000  0.000  0.167
     ------------------------ ATOM   66 ------------------------
     Tr[ns( 66)] =   1.00000
     eigenvalues:
       0.167  0.167  0.167
     eigenvectors (columns):
       1.000  0.000  0.000
       0.000  1.000  0.000
       0.000  0.000  1.000
     occupation matrix ns (before diag.):
       0.167  0.000  0.000
       0.000  0.167  0.000
       0.000  0.000  0.167
     ------------------------ ATOM   67 ------------------------
     Tr[ns( 67)] =   1.00000
     eigenvalues:
       0.167  0.167  0.167
     eigenvectors (columns):
       1.000  0.000  0.000
       0.000  1.000  0.000
       0.000  0.000  1.000
     occupation matrix ns (before diag.):
       0.167  0.000  0.000
       0.000  0.167  0.000
       0.000  0.000  0.167
     ------------------------ ATOM   68 ------------------------
     Tr[ns( 68)] =   1.00000
     eigenvalues:
       0.167  0.167  0.167
     eigenvectors (columns):
       1.000  0.000  0.000
       0.000  1.000  0.000
       0.000  0.000  1.000
     occupation matrix ns (before diag.):
       0.167  0.000  0.000
       0.000  0.167  0.000
       0.000  0.000  0.167
     ------------------------ ATOM   69 ------------------------
     Tr[ns( 69)] =   3.00000
     eigenvalues:
       0.500  0.500  0.500
     eigenvectors (columns):
       1.000  0.000  0.000
       0.000  1.000  0.000
       0.000  0.000  1.000
     occupation matrix ns (before diag.):
       0.500  0.000  0.000
       0.000  0.500  0.000
       0.000  0.000  0.500
     ------------------------ ATOM   70 ------------------------
     Tr[ns( 70)] =   3.00000
     eigenvalues:
       0.500  0.500  0.500
     eigenvectors (columns):
       1.000  0.000  0.000
       0.000  1.000  0.000
       0.000  0.000  1.000
     occupation matrix ns (before diag.):
       0.500  0.000  0.000
       0.000  0.500  0.000
       0.000  0.000  0.500
     ------------------------ ATOM   71 ------------------------
     Tr[ns( 71)] =   3.00000
     eigenvalues:
       0.500  0.500  0.500
     eigenvectors (columns):
       1.000  0.000  0.000
       0.000  1.000  0.000
       0.000  0.000  1.000
     occupation matrix ns (before diag.):
       0.500  0.000  0.000
       0.000  0.500  0.000
       0.000  0.000  0.500
     ------------------------ ATOM   72 ------------------------
     Tr[ns( 72)] =   3.00000
     eigenvalues:
       0.500  0.500  0.500
     eigenvectors (columns):
       1.000  0.000  0.000
       0.000  1.000  0.000
       0.000  0.000  1.000
     occupation matrix ns (before diag.):
       0.500  0.000  0.000
       0.000  0.500  0.000
       0.000  0.000  0.500
     ------------------------ ATOM   73 ------------------------
     Tr[ns( 73)] =   1.00000
     eigenvalues:
       0.167  0.167  0.167
     eigenvectors (columns):
       1.000  0.000  0.000
       0.000  1.000  0.000
       0.000  0.000  1.000
     occupation matrix ns (before diag.):
       0.167  0.000  0.000
       0.000  0.167  0.000
       0.000  0.000  0.167
     ------------------------ ATOM   74 ------------------------
     Tr[ns( 74)] =   1.00000
     eigenvalues:
       0.167  0.167  0.167
     eigenvectors (columns):
       1.000  0.000  0.000
       0.000  1.000  0.000
       0.000  0.000  1.000
     occupation matrix ns (before diag.):
       0.167  0.000  0.000
       0.000  0.167  0.000
       0.000  0.000  0.167
     ------------------------ ATOM   75 ------------------------
     Tr[ns( 75)] =   1.00000
     eigenvalues:
       0.167  0.167  0.167
     eigenvectors (columns):
       1.000  0.000  0.000
       0.000  1.000  0.000
       0.000  0.000  1.000
     occupation matrix ns (before diag.):
       0.167  0.000  0.000
       0.000  0.167  0.000
       0.000  0.000  0.167
     ------------------------ ATOM   76 ------------------------
     Tr[ns( 76)] =   1.00000
     eigenvalues:
       0.167  0.167  0.167
     eigenvectors (columns):
       1.000  0.000  0.000
       0.000  1.000  0.000
       0.000  0.000  1.000
     occupation matrix ns (before diag.):
       0.167  0.000  0.000
       0.000  0.167  0.000
       0.000  0.000  0.167
     ------------------------ ATOM   77 ------------------------
     Tr[ns( 77)] =   3.00000
     eigenvalues:
       0.500  0.500  0.500
     eigenvectors (columns):
       1.000  0.000  0.000
       0.000  1.000  0.000
       0.000  0.000  1.000
     occupation matrix ns (before diag.):
       0.500  0.000  0.000
       0.000  0.500  0.000
       0.000  0.000  0.500
     ------------------------ ATOM   78 ------------------------
     Tr[ns( 78)] =   3.00000
     eigenvalues:
       0.500  0.500  0.500
     eigenvectors (columns):
       1.000  0.000  0.000
       0.000  1.000  0.000
       0.000  0.000  1.000
     occupation matrix ns (before diag.):
       0.500  0.000  0.000
       0.000  0.500  0.000
       0.000  0.000  0.500
     ------------------------ ATOM   79 ------------------------
     Tr[ns( 79)] =   3.00000
     eigenvalues:
       0.500  0.500  0.500
     eigenvectors (columns):
       1.000  0.000  0.000
       0.000  1.000  0.000
       0.000  0.000  1.000
     occupation matrix ns (before diag.):
       0.500  0.000  0.000
       0.000  0.500  0.000
       0.000  0.000  0.500
     ------------------------ ATOM   80 ------------------------
     Tr[ns( 80)] =   3.00000
     eigenvalues:
       0.500  0.500  0.500
     eigenvectors (columns):
       1.000  0.000  0.000
       0.000  1.000  0.000
       0.000  0.000  1.000
     occupation matrix ns (before diag.):
       0.500  0.000  0.000
       0.000  0.500  0.000
       0.000  0.000  0.500
     ------------------------ ATOM   81 ------------------------
     Tr[ns( 81)] =   1.00000
     eigenvalues:
       0.167  0.167  0.167
     eigenvectors (columns):
       1.000  0.000  0.000
       0.000  1.000  0.000
       0.000  0.000  1.000
     occupation matrix ns (before diag.):
       0.167  0.000  0.000
       0.000  0.167  0.000
       0.000  0.000  0.167
     ------------------------ ATOM   82 ------------------------
     Tr[ns( 82)] =   1.00000
     eigenvalues:
       0.167  0.167  0.167
     eigenvectors (columns):
       1.000  0.000  0.000
       0.000  1.000  0.000
       0.000  0.000  1.000
     occupation matrix ns (before diag.):
       0.167  0.000  0.000
       0.000  0.167  0.000
       0.000  0.000  0.167
     ------------------------ ATOM   83 ------------------------
     Tr[ns( 83)] =   1.00000
     eigenvalues:
       0.167  0.167  0.167
     eigenvectors (columns):
       1.000  0.000  0.000
       0.000  1.000  0.000
       0.000  0.000  1.000
     occupation matrix ns (before diag.):
       0.167  0.000  0.000
       0.000  0.167  0.000
       0.000  0.000  0.167
     ------------------------ ATOM   84 ------------------------
     Tr[ns( 84)] =   1.00000
     eigenvalues:
       0.167  0.167  0.167
     eigenvectors (columns):
       1.000  0.000  0.000
       0.000  1.000  0.000
       0.000  0.000  1.000
     occupation matrix ns (before diag.):
       0.167  0.000  0.000
       0.000  0.167  0.000
       0.000  0.000  0.167
     ------------------------ ATOM   85 ------------------------
     Tr[ns( 85)] =   3.00000
     eigenvalues:
       0.500  0.500  0.500
     eigenvectors (columns):
       1.000  0.000  0.000
       0.000  1.000  0.000
       0.000  0.000  1.000
     occupation matrix ns (before diag.):
       0.500  0.000  0.000
       0.000  0.500  0.000
       0.000  0.000  0.500
     ------------------------ ATOM   86 ------------------------
     Tr[ns( 86)] =   3.00000
     eigenvalues:
       0.500  0.500  0.500
     eigenvectors (columns):
       1.000  0.000  0.000
       0.000  1.000  0.000
       0.000  0.000  1.000
     occupation matrix ns (before diag.):
       0.500  0.000  0.000
       0.000  0.500  0.000
       0.000  0.000  0.500
     ------------------------ ATOM   87 ------------------------
     Tr[ns( 87)] =   3.00000
     eigenvalues:
       0.500  0.500  0.500
     eigenvectors (columns):
       1.000  0.000  0.000
       0.000  1.000  0.000
       0.000  0.000  1.000
     occupation matrix ns (before diag.):
       0.500  0.000  0.000
       0.000  0.500  0.000
       0.000  0.000  0.500
     ------------------------ ATOM   88 ------------------------
     Tr[ns( 88)] =   3.00000
     eigenvalues:
       0.500  0.500  0.500
     eigenvectors (columns):
       1.000  0.000  0.000
       0.000  1.000  0.000
       0.000  0.000  1.000
     occupation matrix ns (before diag.):
       0.500  0.000  0.000
       0.000  0.500  0.000
       0.000  0.000  0.500
     ------------------------ ATOM   89 ------------------------
     Tr[ns( 89)] =   1.00000
     eigenvalues:
       0.167  0.167  0.167
     eigenvectors (columns):
       1.000  0.000  0.000
       0.000  1.000  0.000
       0.000  0.000  1.000
     occupation matrix ns (before diag.):
       0.167  0.000  0.000
       0.000  0.167  0.000
       0.000  0.000  0.167
     ------------------------ ATOM   90 ------------------------
     Tr[ns( 90)] =   1.00000
     eigenvalues:
       0.167  0.167  0.167
     eigenvectors (columns):
       1.000  0.000  0.000
       0.000  1.000  0.000
       0.000  0.000  1.000
     occupation matrix ns (before diag.):
       0.167  0.000  0.000
       0.000  0.167  0.000
       0.000  0.000  0.167
     ------------------------ ATOM   91 ------------------------
     Tr[ns( 91)] =   1.00000
     eigenvalues:
       0.167  0.167  0.167
     eigenvectors (columns):
       1.000  0.000  0.000
       0.000  1.000  0.000
       0.000  0.000  1.000
     occupation matrix ns (before diag.):
       0.167  0.000  0.000
       0.000  0.167  0.000
       0.000  0.000  0.167
     ------------------------ ATOM   92 ------------------------
     Tr[ns( 92)] =   1.00000
     eigenvalues:
       0.167  0.167  0.167
     eigenvectors (columns):
       1.000  0.000  0.000
       0.000  1.000  0.000
       0.000  0.000  1.000
     occupation matrix ns (before diag.):
       0.167  0.000  0.000
       0.000  0.167  0.000
       0.000  0.000  0.167
     ------------------------ ATOM   93 ------------------------
     Tr[ns( 93)] =   3.00000
     eigenvalues:
       0.500  0.500  0.500
     eigenvectors (columns):
       1.000  0.000  0.000
       0.000  1.000  0.000
       0.000  0.000  1.000
     occupation matrix ns (before diag.):
       0.500  0.000  0.000
       0.000  0.500  0.000
       0.000  0.000  0.500
     ------------------------ ATOM   94 ------------------------
     Tr[ns( 94)] =   3.00000
     eigenvalues:
       0.500  0.500  0.500
     eigenvectors (columns):
       1.000  0.000  0.000
       0.000  1.000  0.000
       0.000  0.000  1.000
     occupation matrix ns (before diag.):
       0.500  0.000  0.000
       0.000  0.500  0.000
       0.000  0.000  0.500
     ------------------------ ATOM   95 ------------------------
     Tr[ns( 95)] =   3.00000
     eigenvalues:
       0.500  0.500  0.500
     eigenvectors (columns):
       1.000  0.000  0.000
       0.000  1.000  0.000
       0.000  0.000  1.000
     occupation matrix ns (before diag.):
       0.500  0.000  0.000
       0.000  0.500  0.000
       0.000  0.000  0.500
     ------------------------ ATOM   96 ------------------------
     Tr[ns( 96)] =   3.00000
     eigenvalues:
       0.500  0.500  0.500
     eigenvectors (columns):
       1.000  0.000  0.000
       0.000  1.000  0.000
       0.000  0.000  1.000
     occupation matrix ns (before diag.):
       0.500  0.000  0.000
       0.000  0.500  0.000
       0.000  0.000  0.500
     ------------------------ ATOM   97 ------------------------
     Tr[ns( 97)] =   1.00000
     eigenvalues:
       0.167  0.167  0.167
     eigenvectors (columns):
       1.000  0.000  0.000
       0.000  1.000  0.000
       0.000  0.000  1.000
     occupation matrix ns (before diag.):
       0.167  0.000  0.000
       0.000  0.167  0.000
       0.000  0.000  0.167
     ------------------------ ATOM   98 ------------------------
     Tr[ns( 98)] =   1.00000
     eigenvalues:
       0.167  0.167  0.167
     eigenvectors (columns):
       1.000  0.000  0.000
       0.000  1.000  0.000
       0.000  0.000  1.000
     occupation matrix ns (before diag.):
       0.167  0.000  0.000
       0.000  0.167  0.000
       0.000  0.000  0.167
     ------------------------ ATOM   99 ------------------------
     Tr[ns( 99)] =   1.00000
     eigenvalues:
       0.167  0.167  0.167
     eigenvectors (columns):
       1.000  0.000  0.000
       0.000  1.000  0.000
       0.000  0.000  1.000
     occupation matrix ns (before diag.):
       0.167  0.000  0.000
       0.000  0.167  0.000
       0.000  0.000  0.167
     ------------------------ ATOM  100 ------------------------
     Tr[ns(100)] =   1.00000
     eigenvalues:
       0.167  0.167  0.167
     eigenvectors (columns):
       1.000  0.000  0.000
       0.000  1.000  0.000
       0.000  0.000  1.000
     occupation matrix ns (before diag.):
       0.167  0.000  0.000
       0.000  0.167  0.000
       0.000  0.000  0.167
     ------------------------ ATOM  101 ------------------------
     Tr[ns(101)] =   3.00000
     eigenvalues:
       0.500  0.500  0.500
     eigenvectors (columns):
       1.000  0.000  0.000
       0.000  1.000  0.000
       0.000  0.000  1.000
     occupation matrix ns (before diag.):
       0.500  0.000  0.000
       0.000  0.500  0.000
       0.000  0.000  0.500
     ------------------------ ATOM  102 ------------------------
     Tr[ns(102)] =   3.00000
     eigenvalues:
       0.500  0.500  0.500
     eigenvectors (columns):
       1.000  0.000  0.000
       0.000  1.000  0.000
       0.000  0.000  1.000
     occupation matrix ns (before diag.):
       0.500  0.000  0.000
       0.000  0.500  0.000
       0.000  0.000  0.500
     ------------------------ ATOM  103 ------------------------
     Tr[ns(103)] =   3.00000
     eigenvalues:
       0.500  0.500  0.500
     eigenvectors (columns):
       1.000  0.000  0.000
       0.000  1.000  0.000
       0.000  0.000  1.000
     occupation matrix ns (before diag.):
       0.500  0.000  0.000
       0.000  0.500  0.000
       0.000  0.000  0.500
     ------------------------ ATOM  104 ------------------------
     Tr[ns(104)] =   3.00000
     eigenvalues:
       0.500  0.500  0.500
     eigenvectors (columns):
       1.000  0.000  0.000
       0.000  1.000  0.000
       0.000  0.000  1.000
     occupation matrix ns (before diag.):
       0.500  0.000  0.000
       0.000  0.500  0.000
       0.000  0.000  0.500
     ------------------------ ATOM  105 ------------------------
     Tr[ns(105)] =   1.00000
     eigenvalues:
       0.167  0.167  0.167
     eigenvectors (columns):
       1.000  0.000  0.000
       0.000  1.000  0.000
       0.000  0.000  1.000
     occupation matrix ns (before diag.):
       0.167  0.000  0.000
       0.000  0.167  0.000
       0.000  0.000  0.167
     ------------------------ ATOM  106 ------------------------
     Tr[ns(106)] =   1.00000
     eigenvalues:
       0.167  0.167  0.167
     eigenvectors (columns):
       1.000  0.000  0.000
       0.000  1.000  0.000
       0.000  0.000  1.000
     occupation matrix ns (before diag.):
       0.167  0.000  0.000
       0.000  0.167  0.000
       0.000  0.000  0.167
     ------------------------ ATOM  107 ------------------------
     Tr[ns(107)] =   1.00000
     eigenvalues:
       0.167  0.167  0.167
     eigenvectors (columns):
       1.000  0.000  0.000
       0.000  1.000  0.000
       0.000  0.000  1.000
     occupation matrix ns (before diag.):
       0.167  0.000  0.000
       0.000  0.167  0.000
       0.000  0.000  0.167
     ------------------------ ATOM  108 ------------------------
     Tr[ns(108)] =   1.00000
     eigenvalues:
       0.167  0.167  0.167
     eigenvectors (columns):
       1.000  0.000  0.000
       0.000  1.000  0.000
       0.000  0.000  1.000
     occupation matrix ns (before diag.):
       0.167  0.000  0.000
       0.000  0.167  0.000
       0.000  0.000  0.167
     ------------------------ ATOM  109 ------------------------
     Tr[ns(109)] =   3.00000
     eigenvalues:
       0.500  0.500  0.500
     eigenvectors (columns):
       1.000  0.000  0.000
       0.000  1.000  0.000
       0.000  0.000  1.000
     occupation matrix ns (before diag.):
       0.500  0.000  0.000
       0.000  0.500  0.000
       0.000  0.000  0.500
     ------------------------ ATOM  110 ------------------------
     Tr[ns(110)] =   3.00000
     eigenvalues:
       0.500  0.500  0.500
     eigenvectors (columns):
       1.000  0.000  0.000
       0.000  1.000  0.000
       0.000  0.000  1.000
     occupation matrix ns (before diag.):
       0.500  0.000  0.000
       0.000  0.500  0.000
       0.000  0.000  0.500
     ------------------------ ATOM  111 ------------------------
     Tr[ns(111)] =   3.00000
     eigenvalues:
       0.500  0.500  0.500
     eigenvectors (columns):
       1.000  0.000  0.000
       0.000  1.000  0.000
       0.000  0.000  1.000
     occupation matrix ns (before diag.):
       0.500  0.000  0.000
       0.000  0.500  0.000
       0.000  0.000  0.500
     ------------------------ ATOM  112 ------------------------
     Tr[ns(112)] =   3.00000
     eigenvalues:
       0.500  0.500  0.500
     eigenvectors (columns):
       1.000  0.000  0.000
       0.000  1.000  0.000
       0.000  0.000  1.000
     occupation matrix ns (before diag.):
       0.500  0.000  0.000
       0.000  0.500  0.000
       0.000  0.000  0.500
     ------------------------ ATOM  113 ------------------------
     Tr[ns(113)] =   1.00000
     eigenvalues:
       0.167  0.167  0.167
     eigenvectors (columns):
       1.000  0.000  0.000
       0.000  1.000  0.000
       0.000  0.000  1.000
     occupation matrix ns (before diag.):
       0.167  0.000  0.000
       0.000  0.167  0.000
       0.000  0.000  0.167
     ------------------------ ATOM  114 ------------------------
     Tr[ns(114)] =   1.00000
     eigenvalues:
       0.167  0.167  0.167
     eigenvectors (columns):
       1.000  0.000  0.000
       0.000  1.000  0.000
       0.000  0.000  1.000
     occupation matrix ns (before diag.):
       0.167  0.000  0.000
       0.000  0.167  0.000
       0.000  0.000  0.167
     ------------------------ ATOM  115 ------------------------
     Tr[ns(115)] =   1.00000
     eigenvalues:
       0.167  0.167  0.167
     eigenvectors (columns):
       1.000  0.000  0.000
       0.000  1.000  0.000
       0.000  0.000  1.000
     occupation matrix ns (before diag.):
       0.167  0.000  0.000
       0.000  0.167  0.000
       0.000  0.000  0.167
     ------------------------ ATOM  116 ------------------------
     Tr[ns(116)] =   1.00000
     eigenvalues:
       0.167  0.167  0.167
     eigenvectors (columns):
       1.000  0.000  0.000
       0.000  1.000  0.000
       0.000  0.000  1.000
     occupation matrix ns (before diag.):
       0.167  0.000  0.000
       0.000  0.167  0.000
       0.000  0.000  0.167
     ------------------------ ATOM  117 ------------------------
     Tr[ns(117)] =   3.00000
     eigenvalues:
       0.500  0.500  0.500
     eigenvectors (columns):
       1.000  0.000  0.000
       0.000  1.000  0.000
       0.000  0.000  1.000
     occupation matrix ns (before diag.):
       0.500  0.000  0.000
       0.000  0.500  0.000
       0.000  0.000  0.500
     ------------------------ ATOM  118 ------------------------
     Tr[ns(118)] =   3.00000
     eigenvalues:
       0.500  0.500  0.500
     eigenvectors (columns):
       1.000  0.000  0.000
       0.000  1.000  0.000
       0.000  0.000  1.000
     occupation matrix ns (before diag.):
       0.500  0.000  0.000
       0.000  0.500  0.000
       0.000  0.000  0.500
     ------------------------ ATOM  119 ------------------------
     Tr[ns(119)] =   3.00000
     eigenvalues:
       0.500  0.500  0.500
     eigenvectors (columns):
       1.000  0.000  0.000
       0.000  1.000  0.000
       0.000  0.000  1.000
     occupation matrix ns (before diag.):
       0.500  0.000  0.000
       0.000  0.500  0.000
       0.000  0.000  0.500
     ------------------------ ATOM  120 ------------------------
     Tr[ns(120)] =   3.00000
     eigenvalues:
       0.500  0.500  0.500
     eigenvectors (columns):
       1.000  0.000  0.000
       0.000  1.000  0.000
       0.000  0.000  1.000
     occupation matrix ns (before diag.):
       0.500  0.000  0.000
       0.000  0.500  0.000
       0.000  0.000  0.500
     ------------------------ ATOM  121 ------------------------
     Tr[ns(121)] =   1.00000
     eigenvalues:
       0.167  0.167  0.167
     eigenvectors (columns):
       1.000  0.000  0.000
       0.000  1.000  0.000
       0.000  0.000  1.000
     occupation matrix ns (before diag.):
       0.167  0.000  0.000
       0.000  0.167  0.000
       0.000  0.000  0.167
     ------------------------ ATOM  122 ------------------------
     Tr[ns(122)] =   1.00000
     eigenvalues:
       0.167  0.167  0.167
     eigenvectors (columns):
       1.000  0.000  0.000
       0.000  1.000  0.000
       0.000  0.000  1.000
     occupation matrix ns (before diag.):
       0.167  0.000  0.000
       0.000  0.167  0.000
       0.000  0.000  0.167
     ------------------------ ATOM  123 ------------------------
     Tr[ns(123)] =   1.00000
     eigenvalues:
       0.167  0.167  0.167
     eigenvectors (columns):
       1.000  0.000  0.000
       0.000  1.000  0.000
       0.000  0.000  1.000
     occupation matrix ns (before diag.):
       0.167  0.000  0.000
       0.000  0.167  0.000
       0.000  0.000  0.167
     ------------------------ ATOM  124 ------------------------
     Tr[ns(124)] =   1.00000
     eigenvalues:
       0.167  0.167  0.167
     eigenvectors (columns):
       1.000  0.000  0.000
       0.000  1.000  0.000
       0.000  0.000  1.000
     occupation matrix ns (before diag.):
       0.167  0.000  0.000
       0.000  0.167  0.000
       0.000  0.000  0.167
     ------------------------ ATOM  125 ------------------------
     Tr[ns(125)] =   3.00000
     eigenvalues:
       0.500  0.500  0.500
     eigenvectors (columns):
       1.000  0.000  0.000
       0.000  1.000  0.000
       0.000  0.000  1.000
     occupation matrix ns (before diag.):
       0.500  0.000  0.000
       0.000  0.500  0.000
       0.000  0.000  0.500
     ------------------------ ATOM  126 ------------------------
     Tr[ns(126)] =   3.00000
     eigenvalues:
       0.500  0.500  0.500
     eigenvectors (columns):
       1.000  0.000  0.000
       0.000  1.000  0.000
       0.000  0.000  1.000
     occupation matrix ns (before diag.):
       0.500  0.000  0.000
       0.000  0.500  0.000
       0.000  0.000  0.500
     ------------------------ ATOM  127 ------------------------
     Tr[ns(127)] =   3.00000
     eigenvalues:
       0.500  0.500  0.500
     eigenvectors (columns):
       1.000  0.000  0.000
       0.000  1.000  0.000
       0.000  0.000  1.000
     occupation matrix ns (before diag.):
       0.500  0.000  0.000
       0.000  0.500  0.000
       0.000  0.000  0.500
     ------------------------ ATOM  128 ------------------------
     Tr[ns(128)] =   3.00000
     eigenvalues:
       0.500  0.500  0.500
     eigenvectors (columns):
       1.000  0.000  0.000
       0.000  1.000  0.000
       0.000  0.000  1.000
     occupation matrix ns (before diag.):
       0.500  0.000  0.000
       0.000  0.500  0.000
       0.000  0.000  0.500
     ------------------------ ATOM  129 ------------------------
     Tr[ns(129)] =   1.00000
     eigenvalues:
       0.167  0.167  0.167
     eigenvectors (columns):
       1.000  0.000  0.000
       0.000  1.000  0.000
       0.000  0.000  1.000
     occupation matrix ns (before diag.):
       0.167  0.000  0.000
       0.000  0.167  0.000
       0.000  0.000  0.167
     ------------------------ ATOM  130 ------------------------
     Tr[ns(130)] =   1.00000
     eigenvalues:
       0.167  0.167  0.167
     eigenvectors (columns):
       1.000  0.000  0.000
       0.000  1.000  0.000
       0.000  0.000  1.000
     occupation matrix ns (before diag.):
       0.167  0.000  0.000
       0.000  0.167  0.000
       0.000  0.000  0.167
     ------------------------ ATOM  131 ------------------------
     Tr[ns(131)] =   1.00000
     eigenvalues:
       0.167  0.167  0.167
     eigenvectors (columns):
       1.000  0.000  0.000
       0.000  1.000  0.000
       0.000  0.000  1.000
     occupation matrix ns (before diag.):
       0.167  0.000  0.000
       0.000  0.167  0.000
       0.000  0.000  0.167
     ------------------------ ATOM  132 ------------------------
     Tr[ns(132)] =   1.00000
     eigenvalues:
       0.167  0.167  0.167
     eigenvectors (columns):
       1.000  0.000  0.000
       0.000  1.000  0.000
       0.000  0.000  1.000
     occupation matrix ns (before diag.):
       0.167  0.000  0.000
       0.000  0.167  0.000
       0.000  0.000  0.167
     ------------------------ ATOM  133 ------------------------
     Tr[ns(133)] =   3.00000
     eigenvalues:
       0.500  0.500  0.500
     eigenvectors (columns):
       1.000  0.000  0.000
       0.000  1.000  0.000
       0.000  0.000  1.000
     occupation matrix ns (before diag.):
       0.500  0.000  0.000
       0.000  0.500  0.000
       0.000  0.000  0.500
     ------------------------ ATOM  134 ------------------------
     Tr[ns(134)] =   3.00000
     eigenvalues:
       0.500  0.500  0.500
     eigenvectors (columns):
       1.000  0.000  0.000
       0.000  1.000  0.000
       0.000  0.000  1.000
     occupation matrix ns (before diag.):
       0.500  0.000  0.000
       0.000  0.500  0.000
       0.000  0.000  0.500
     ------------------------ ATOM  135 ------------------------
     Tr[ns(135)] =   3.00000
     eigenvalues:
       0.500  0.500  0.500
     eigenvectors (columns):
       1.000  0.000  0.000
       0.000  1.000  0.000
       0.000  0.000  1.000
     occupation matrix ns (before diag.):
       0.500  0.000  0.000
       0.000  0.500  0.000
       0.000  0.000  0.500
     ------------------------ ATOM  136 ------------------------
     Tr[ns(136)] =   3.00000
     eigenvalues:
       0.500  0.500  0.500
     eigenvectors (columns):
       1.000  0.000  0.000
       0.000  1.000  0.000
       0.000  0.000  1.000
     occupation matrix ns (before diag.):
       0.500  0.000  0.000
       0.000  0.500  0.000
       0.000  0.000  0.500
     ------------------------ ATOM  137 ------------------------
     Tr[ns(137)] =   1.00000
     eigenvalues:
       0.167  0.167  0.167
     eigenvectors (columns):
       1.000  0.000  0.000
       0.000  1.000  0.000
       0.000  0.000  1.000
     occupation matrix ns (before diag.):
       0.167  0.000  0.000
       0.000  0.167  0.000
       0.000  0.000  0.167
     ------------------------ ATOM  138 ------------------------
     Tr[ns(138)] =   1.00000
     eigenvalues:
       0.167  0.167  0.167
     eigenvectors (columns):
       1.000  0.000  0.000
       0.000  1.000  0.000
       0.000  0.000  1.000
     occupation matrix ns (before diag.):
       0.167  0.000  0.000
       0.000  0.167  0.000
       0.000  0.000  0.167
     ------------------------ ATOM  139 ------------------------
     Tr[ns(139)] =   1.00000
     eigenvalues:
       0.167  0.167  0.167
     eigenvectors (columns):
       1.000  0.000  0.000
       0.000  1.000  0.000
       0.000  0.000  1.000
     occupation matrix ns (before diag.):
       0.167  0.000  0.000
       0.000  0.167  0.000
       0.000  0.000  0.167
     ------------------------ ATOM  140 ------------------------
     Tr[ns(140)] =   1.00000
     eigenvalues:
       0.167  0.167  0.167
     eigenvectors (columns):
       1.000  0.000  0.000
       0.000  1.000  0.000
       0.000  0.000  1.000
     occupation matrix ns (before diag.):
       0.167  0.000  0.000
       0.000  0.167  0.000
       0.000  0.000  0.167
     ------------------------ ATOM  141 ------------------------
     Tr[ns(141)] =   3.00000
     eigenvalues:
       0.500  0.500  0.500
     eigenvectors (columns):
       1.000  0.000  0.000
       0.000  1.000  0.000
       0.000  0.000  1.000
     occupation matrix ns (before diag.):
       0.500  0.000  0.000
       0.000  0.500  0.000
       0.000  0.000  0.500
     ------------------------ ATOM  142 ------------------------
     Tr[ns(142)] =   3.00000
     eigenvalues:
       0.500  0.500  0.500
     eigenvectors (columns):
       1.000  0.000  0.000
       0.000  1.000  0.000
       0.000  0.000  1.000
     occupation matrix ns (before diag.):
       0.500  0.000  0.000
       0.000  0.500  0.000
       0.000  0.000  0.500
     ------------------------ ATOM  143 ------------------------
     Tr[ns(143)] =   3.00000
     eigenvalues:
       0.500  0.500  0.500
     eigenvectors (columns):
       1.000  0.000  0.000
       0.000  1.000  0.000
       0.000  0.000  1.000
     occupation matrix ns (before diag.):
       0.500  0.000  0.000
       0.000  0.500  0.000
       0.000  0.000  0.500
     ------------------------ ATOM  144 ------------------------
     Tr[ns(144)] =   3.00000
     eigenvalues:
       0.500  0.500  0.500
     eigenvectors (columns):
       1.000  0.000  0.000
       0.000  1.000  0.000
       0.000  0.000  1.000
     occupation matrix ns (before diag.):
       0.500  0.000  0.000
       0.000  0.500  0.000
       0.000  0.000  0.500
     ------------------------ ATOM  145 ------------------------
     Tr[ns(145)] =   1.00000
     eigenvalues:
       0.167  0.167  0.167
     eigenvectors (columns):
       1.000  0.000  0.000
       0.000  1.000  0.000
       0.000  0.000  1.000
     occupation matrix ns (before diag.):
       0.167  0.000  0.000
       0.000  0.167  0.000
       0.000  0.000  0.167
     ------------------------ ATOM  146 ------------------------
     Tr[ns(146)] =   1.00000
     eigenvalues:
       0.167  0.167  0.167
     eigenvectors (columns):
       1.000  0.000  0.000
       0.000  1.000  0.000
       0.000  0.000  1.000
     occupation matrix ns (before diag.):
       0.167  0.000  0.000
       0.000  0.167  0.000
       0.000  0.000  0.167
     ------------------------ ATOM  147 ------------------------
     Tr[ns(147)] =   1.00000
     eigenvalues:
       0.167  0.167  0.167
     eigenvectors (columns):
       1.000  0.000  0.000
       0.000  1.000  0.000
       0.000  0.000  1.000
     occupation matrix ns (before diag.):
       0.167  0.000  0.000
       0.000  0.167  0.000
       0.000  0.000  0.167
     ------------------------ ATOM  148 ------------------------
     Tr[ns(148)] =   1.00000
     eigenvalues:
       0.167  0.167  0.167
     eigenvectors (columns):
       1.000  0.000  0.000
       0.000  1.000  0.000
       0.000  0.000  1.000
     occupation matrix ns (before diag.):
       0.167  0.000  0.000
       0.000  0.167  0.000
       0.000  0.000  0.167
     ------------------------ ATOM  149 ------------------------
     Tr[ns(149)] =   3.00000
     eigenvalues:
       0.500  0.500  0.500
     eigenvectors (columns):
       1.000  0.000  0.000
       0.000  1.000  0.000
       0.000  0.000  1.000
     occupation matrix ns (before diag.):
       0.500  0.000  0.000
       0.000  0.500  0.000
       0.000  0.000  0.500
     ------------------------ ATOM  150 ------------------------
     Tr[ns(150)] =   3.00000
     eigenvalues:
       0.500  0.500  0.500
     eigenvectors (columns):
       1.000  0.000  0.000
       0.000  1.000  0.000
       0.000  0.000  1.000
     occupation matrix ns (before diag.):
       0.500  0.000  0.000
       0.000  0.500  0.000
       0.000  0.000  0.500
     ------------------------ ATOM  151 ------------------------
     Tr[ns(151)] =   3.00000
     eigenvalues:
       0.500  0.500  0.500
     eigenvectors (columns):
       1.000  0.000  0.000
       0.000  1.000  0.000
       0.000  0.000  1.000
     occupation matrix ns (before diag.):
       0.500  0.000  0.000
       0.000  0.500  0.000
       0.000  0.000  0.500
     ------------------------ ATOM  152 ------------------------
[...]
   -19.5272 -19.5268 -19.5265 -19.5263 -19.5255 -19.5255 -19.5255 -19.5247
   -19.5246 -19.5245 -19.5239 -19.5235 -19.5235 -19.5235 -19.5234 -19.5228
   -19.5227 -19.5225 -19.5224 -19.5221 -19.5220 -19.5219 -19.5216 -19.5214
   -19.5212 -19.5207 -19.5204 -19.5203 -19.5198 -19.5197 -19.5197 -19.5195
   -19.5191 -19.5184 -19.5183 -19.5177 -19.5177 -19.5175 -19.5173 -19.5173
   -19.5171 -19.5169 -19.5169 -19.5167 -19.5165 -19.5158 -19.5156 -19.5152
   -19.5151 -19.5144 -19.5143 -19.5140 -19.5140 -19.5139 -19.5136 -19.5134
   -19.5130 -19.5126 -19.5124 -19.5122 -19.5119 -19.5117 -19.5117 -19.5116
   -19.5108 -19.5105 -19.5104 -19.5102 -19.5100 -19.5097 -19.5097 -19.5094
   -19.5093 -19.5090 -19.5090 -19.5089 -19.5085 -19.5084 -19.5082 -19.5080
   -19.5078 -19.5076 -19.5073 -19.5071 -19.5066 -19.5064 -19.5060 -19.5059
   -19.5058 -19.5056 -19.5052 -19.5051 -19.5042 -19.5041 -19.5041 -19.5037
   -19.5036 -19.5035 -19.5034 -19.5029 -19.5025 -19.5024 -19.5020 -19.5015
   -19.5011 -19.5009 -19.5009 -19.5008 -19.5004 -19.5003 -19.4998 -19.4989
   -19.4989 -19.4987 -19.4986 -19.4984 -19.4981 -19.4979 -19.4978 -19.4973
   -19.4971 -19.4970 -19.4967 -19.4961 -19.4956 -19.4955 -19.4954 -19.4951
   -19.4950 -19.4949 -19.4943 -19.4938 -19.4936 -19.4935 -19.4931 -19.4931
   -19.4926 -19.4924 -19.4923 -19.4921 -19.4916 -19.4914 -19.4907 -19.4901
   -19.4897 -19.4895 -19.4884 -19.4883 -19.4882 -19.4864 -19.4863 -19.4860
   -19.4860 -19.4849 -19.4848 -19.4848 -19.4847 -19.4845 -19.4844 -19.4841
   -19.4839 -19.4832 -19.4831 -19.4820 -19.4813 -19.4813 -19.4806 -19.4792
   -19.4791 -19.4786 -19.4784 -19.4782 -19.4782 -19.4780 -19.4776 -19.4768
   -19.4764 -19.4756 -19.4754 -19.4748 -19.4739 -19.4735 -19.4732 -19.4727
   -19.4717 -19.4701 -19.4692 -19.4684 -19.4680 -19.4664 -19.4652 -19.4648
   -19.4645 -19.4633 -19.4631 -19.4617 -19.4607 -19.4567 -19.4560 -19.4554
   -19.4548 -19.4516 -19.4399 -19.4374  -7.3525  -7.3425  -7.3422  -7.3397
    -7.3396  -7.3389  -7.3384  -7.3370  -7.3355  -7.3347  -7.3344  -7.3338
    -7.3328  -7.3317  -7.3248  -7.3237  -7.3226  -7.3200  -7.3164  -7.3160
    -7.3150  -7.3147  -7.3138  -7.3131  -7.3118  -7.3113  -7.3073  -7.3067
    -7.3046  -7.3036  -7.3033  -7.3009  -7.2986  -7.2979  -7.2971  -7.2965
    -7.2958  -7.2928  -7.2921  -7.2914  -7.2895  -7.2892  -7.2884  -7.2870
    -7.2866  -7.2860  -7.2858  -7.2841  -7.2832  -7.2821  -7.2818  -7.2817
    -7.2812  -7.2807  -7.2799  -7.2789  -7.2768  -7.2761  -7.2747  -7.2742
    -7.2733  -7.2732  -7.2727  -7.2723  -7.2716  -7.2713  -7.2701  -7.2700
    -7.2680  -7.2678  -7.2666  -7.2660  -7.2658  -7.2653  -7.2648  -7.2645
    -7.2642  -7.2634  -7.2622  -7.2621  -7.2616  -7.2610  -7.2603  -7.2602
    -7.2600  -7.2592  -7.2583  -7.2570  -7.2557  -7.2554  -7.2542  -7.2541
    -7.2535  -7.2532  -7.2529  -7.2518  -7.2516  -7.2511  -7.2507  -7.2500
    -7.2497  -7.2493  -7.2479  -7.2477  -7.2470  -7.2465  -7.2455  -7.2451
    -7.2449  -7.2443  -7.2440  -7.2422  -7.2419  -7.2413  -7.2409  -7.2405
    -7.2400  -7.2397  -7.2393  -7.2388  -7.2378  -7.2377  -7.2370  -7.2364
    -7.2356  -7.2353  -7.2344  -7.2339  -7.2336  -7.2336  -7.2329  -7.2322
    -7.2315  -7.2309  -7.2309  -7.2302  -7.2298  -7.2287  -7.2282  -7.2277
    -7.2275  -7.2269  -7.2266  -7.2262  -7.2261  -7.2257  -7.2250  -7.2246
    -7.2242  -7.2235  -7.2234  -7.2224  -7.2217  -7.2216  -7.2214  -7.2206
    -7.2201  -7.2197  -7.2189  -7.2186  -7.2183  -7.2179  -7.2177  -7.2173
    -7.2169  -7.2157  -7.2153  -7.2149  -7.2145  -7.2141  -7.2135  -7.2132
    -7.2129  -7.2127  -7.2123  -7.2120  -7.2117  -7.2112  -7.2108  -7.2103
    -7.2102  -7.2089  -7.2087  -7.2083  -7.2081  -7.2073  -7.2069  -7.2066
    -7.2063  -7.2059  -7.2051  -7.2048  -7.2042  -7.2035  -7.2033  -7.2028
    -7.2027  -7.2024  -7.2013  -7.2012  -7.2009  -7.2007  -7.2000  -7.1998
    -7.1994  -7.1983  -7.1981  -7.1973  -7.1968  -7.1961  -7.1960  -7.1954
    -7.1951  -7.1949  -7.1948  -7.1941  -7.1937  -7.1935  -7.1933  -7.1931
    -7.1928  -7.1919  -7.1918  -7.1908  -7.1904  -7.1901  -7.1892  -7.1889
    -7.1885  -7.1884  -7.1875  -7.1873  -7.1873  -7.1869  -7.1863  -7.1862
    -7.1857  -7.1853  -7.1850  -7.1849  -7.1842  -7.1841  -7.1834  -7.1834
    -7.1831  -7.1829  -7.1824  -7.1817  -7.1814  -7.1811  -7.1803  -7.1802
    -7.1798  -7.1793  -7.1790  -7.1784  -7.1777  -7.1775  -7.1775  -7.1770
    -7.1764  -7.1758  -7.1752  -7.1752  -7.1748  -7.1748  -7.1747  -7.1744
    -7.1739  -7.1733  -7.1729  -7.1725  -7.1723  -7.1719  -7.1716  -7.1710
    -7.1708  -7.1705  -7.1700  -7.1695  -7.1693  -7.1691  -7.1685  -7.1682
    -7.1678  -7.1676  -7.1671  -7.1662  -7.1661  -7.1660  -7.1654  -7.1650
    -7.1647  -7.1645  -7.1639  -7.1636  -7.1634  -7.1630  -7.1623  -7.1616
    -7.1610  -7.1604  -7.1601  -7.1596  -7.1595  -7.1592  -7.1581  -7.1573
    -7.1570  -7.1566  -7.1563  -7.1559  -7.1555  -7.1548  -7.1544  -7.1536
    -7.1532  -7.1529  -7.1528  -7.1526  -7.1523  -7.1519  -7.1516  -7.1513
    -7.1510  -7.1505  -7.1502  -7.1496  -7.1493  -7.1488  -7.1482  -7.1478
    -7.1476  -7.1467  -7.1462  -7.1457  -7.1451  -7.1448  -7.1446  -7.1439
    -7.1435  -7.1430  -7.1430  -7.1426  -7.1423  -7.1417  -7.1410  -7.1408
    -7.1402  -7.1401  -7.1397  -7.1394  -7.1388  -7.1384  -7.1381  -7.1378
    -7.1369  -7.1366  -7.1365  -7.1357  -7.1352  -7.1342  -7.1341  -7.1336
    -7.1336  -7.1333  -7.1330  -7.1328  -7.1323  -7.1312  -7.1302  -7.1299
    -7.1294  -7.1288  -7.1285  -7.1281  -7.1275  -7.1270  -7.1262  -7.1254
    -7.1244  -7.1237  -7.1232  -7.1224  -7.1218  -7.1210  -7.1205  -7.1195
    -7.1193  -7.1189  -7.1176  -7.1164  -7.1162  -7.1156  -7.1153  -7.1148
    -7.1143  -7.1139  -7.1136  -7.1134  -7.1133  -7.1122  -7.1119  -7.1108
    -7.1105  -7.1099  -7.1087  -7.1085  -7.1083  -7.1077  -7.1076  -7.1075
    -7.1073  -7.1069  -7.1063  -7.1060  -7.1056  -7.1053  -7.1051  -7.1047
    -7.1040  -7.1037  -7.1034  -7.1032  -7.1024  -7.1022  -7.1018  -7.1011
    -7.1008  -7.0987  -7.0982  -7.0980  -7.0975  -7.0970  -7.0968  -7.0960
    -7.0955  -7.0953  -7.0950  -7.0948  -7.0923  -7.0920  -7.0919  -7.0905
    -7.0903  -7.0900  -7.0893  -7.0889  -7.0883  -7.0879  -7.0875  -7.0870
    -7.0861  -7.0857  -7.0843  -7.0825  -7.0824  -7.0813  -7.0800  -7.0792
    -7.0779  -7.0776  -7.0774  -7.0764  -7.0756  -7.0744  -7.0738  -7.0722
    -7.0720  -7.0715  -7.0712  -7.0707  -7.0690  -7.0687  -7.0679  -7.0664
    -7.0653  -7.0649  -7.0643  -7.0632  -7.0625  -7.0621  -7.0615  -7.0611
    -7.0604  -7.0597  -7.0589  -7.0572  -7.0564  -7.0560  -7.0554  -7.0549
    -7.0548  -7.0540  -7.0532  -7.0518  -7.0509  -7.0504  -7.0499  -7.0490
    -7.0488  -7.0484  -7.0482  -7.0459  -7.0448  -7.0437  -7.0432  -7.0430
    -7.0415  -7.0395  -7.0387  -7.0379  -7.0379  -7.0366  -7.0358  -7.0351
    -7.0345  -7.0326  -7.0320  -7.0312  -7.0291  -7.0284  -7.0271  -7.0252
    -7.0245  -7.0216  -7.0176  -7.0164  -7.0149  -7.0147  -7.0133  -7.0120
    -7.0023  -7.0012  -7.0005  -6.9985  -6.9910  -6.9892  -6.9857  -6.9834
    -3.5592  -3.4968  -3.4781  -3.4325  -3.3316  -3.3192  -3.2789  -3.2390
    -3.2158  -3.1852  -3.1466  -3.1026  -3.0731  -3.0221  -2.9881  -2.9520
    -2.9224  -2.9094  -2.8588  -2.8345  -2.8071  -2.7876  -2.7499  -2.7417
    -2.7210  -2.6851  -2.6717  -2.6653  -2.6470  -2.5790  -2.5557  -2.5463
    -2.5269  -2.5220  -2.4524  -2.4325  -2.4135  -2.3788  -2.3551  -2.3283
    -2.3204  -2.2900  -2.2640  -2.2447  -2.2228  -2.2057  -2.1792  -2.1746
    -2.1570  -2.1354  -2.1040  -2.0830  -2.0424  -2.0187  -2.0082  -1.9653
    -1.9276  -1.8955  -1.8757  -1.8670  -1.8058  -1.7970  -1.7543  -1.7403
    -1.7044  -1.6710  -1.6564  -1.6186  -1.6009  -1.5748  -1.5611  -1.5380
    -1.5229  -1.5130  -1.5073  -1.4958  -1.4733  -1.4348  -1.4161  -1.3861
    -1.3843  -1.3636  -1.3310  -1.3275  -1.2842  -1.2634  -1.2332  -1.2249
    -1.2206  -1.2001  -1.1616  -1.1525  -1.1228  -1.1152  -1.0618  -1.0269
    -1.0178  -0.9325  -0.9008  -0.8921  -0.8523  -0.8440  -0.8225  -0.8160
    -0.7949  -0.7750  -0.7282  -0.7203  -0.3658  -0.3062  -0.2709  -0.2150
     0.0325   0.0750   0.0802   0.0895   0.1115   0.1371   0.1452   0.1624
     0.1746   0.1975   0.2112   0.2205   0.2249   0.2635   0.2681   0.2821
     0.3046   0.3202   0.3288   0.3348   0.3587   0.3742   0.3877   0.4193
     0.4219   0.4402   0.4678   0.4753   0.5132   0.5166   0.5376   0.5574
     0.5831   0.6213   0.6360   0.6468   0.6783   0.6900   0.7503   0.7638
     0.7885   0.7986   0.8129   0.8478   0.8668   0.8707   0.8798   0.9165
     0.9208   0.9449   0.9572   0.9757   0.9876   1.0229   1.0408   1.0477
     1.3918   1.4530   1.4915   1.5116   1.5211   1.5844   1.6079   1.6411
     1.6717   1.6817   1.7626   1.7861   1.7867   1.7979   1.8275   1.8590
     1.8710   1.9031   1.9117   1.9407   1.9697   1.9917   2.0110   2.0457
     2.0559   2.0974   2.1241   2.1456   2.8374   2.8856   2.9360   2.9465
     2.9793   2.9974   3.0075   3.0263   3.0429   3.1037   3.1057   3.1245
     3.1264   3.1291   3.1480   3.1856   3.3007   3.3111   3.3396   3.3540
     3.3758   3.3834   3.3953   3.4182   3.4278   3.4481   3.4517   3.4761
     3.4802   3.5208   3.5249   3.5273   3.5474   3.5844   3.5960   3.6070
     3.6200   3.6265   3.6507   3.6686   3.6807   3.6956   3.7100   3.7172
     3.7410   3.7496   3.7777   3.7811   3.7914   3.8132   3.8191   3.8253
     3.8464   3.8552   3.8806   3.9079   3.9111   3.9314   3.9482   3.9526
     3.9784   4.0317   4.0589   4.0716   4.2023   4.2376   4.2650   4.2851
     4.3110   4.3293   4.3465   4.3758   4.3856   4.4135   4.4207   4.4458
     4.4679   4.4759   4.4884   4.5049   4.5171   4.5261   4.5385   4.5468
     4.5611   4.5888   4.5972   4.6198   4.6253   4.6317   4.6606   4.6679
     4.6794   4.6960   4.7269   4.7484   4.7685   4.7775   4.7864   4.7891
     4.8209   4.8234   4.8428   4.8532   4.8717   4.8806   4.8932   4.9128
     4.9352   4.9464   4.9567   4.9633   4.9866   5.0209   5.0338   5.0504
     5.0616   5.0647   5.0668   5.1040   5.1126   5.1278   5.1323   5.1514
     5.1703   5.1901   5.1985   5.2041   5.2125   5.2420   5.2520   5.2590
     5.2756   5.2909   5.2985   5.3255   5.3311   5.3459   5.3524   5.3712
     5.3807   5.3999   5.4042   5.4328   5.4407   5.4536   5.4654   5.4915
     5.5023   5.5105   5.5252   5.5306   5.5465   5.5630   5.5846   5.5902
     5.6038   5.6267   5.6550   5.6633   5.6793   5.6832   5.7203   5.7278
     5.7514   5.7581   5.7777   5.7882   5.8154   5.8275   5.8559   5.8629
     5.8880   5.8932   5.9010   5.9227   5.9530   5.9832   5.9938   6.0378
     6.0591   6.0796   6.0892   6.1233   6.1327   6.1757   6.1813   6.1907
     6.1957   6.2212   6.2245   6.2420   6.2577   6.2948   6.3134   6.3203
     6.3621   6.3690   6.3876   6.4111   6.4213   6.4369   6.4521   6.4870
     6.4941   6.5074   6.5245   6.5388   6.5808   6.5934   6.6193   6.6290
     6.6417   6.6513   6.6723   6.6879   6.7151   6.7306   6.7392   6.7634
     6.7713   6.8117   6.8370   6.8432   6.8552   6.8799   6.9122   6.9395
     6.9511   7.0356   7.0749   7.1119   7.4564   7.5099   7.5442   7.5952
     9.3173   9.3586   9.3881   9.4036   9.5143   9.5166   9.5514   9.5542
     9.5852   9.6149   9.6455   9.6587   9.7148   9.7430   9.7448   9.7522
     9.7593   9.7739   9.7826   9.7931   9.8090   9.8182   9.8382   9.8404
     9.8497   9.8585   9.8697   9.8753   9.8909   9.9322   9.9707  10.0053
    10.0190  10.0341  10.0599  10.0635  10.0737  10.0897  10.0941  10.1128
    10.1275  10.1361  10.1472  10.1639  10.1656  10.1738  10.1845  10.2072
    10.2260  10.2360  10.2454  10.2629  10.2863  10.2997  10.3084  10.3181
    10.3362  10.3572  10.3648  10.3779  10.3893  10.4211  10.4270  10.4300
    10.4520  10.4634  10.4790  10.4807  10.4939  10.5088  10.5196  10.5266
    10.5340  10.5442  10.5526  10.5592  10.5725  10.5816  10.5998  10.6112
    10.6226  10.6368  10.6445  10.6593  10.6711  10.6898  10.6979  10.7206
    10.7331  10.7417  10.7652  10.7786  10.7922  10.7972  10.8077  10.8176
    10.8190  10.8321  10.8502  10.8627  10.8846  10.8917  10.9049  10.9137
    10.9403  10.9468  10.9582  10.9873  11.2964  11.3015  11.3312  11.3438
    11.4744  11.5045  11.5189  11.5406  11.5589  11.5684  11.5763  11.5878
    11.6214  11.6268  11.6313  11.6446  11.6613  11.6686  11.6847  11.7152
    11.7284  11.7392  11.7596  11.7655  11.8098  11.8235  11.8285  11.8370
    11.8485  11.8557  11.8719  11.8862  11.8964  11.8999  11.9072  11.9153
    11.9226  11.9371  11.9480  11.9501  11.9646  11.9851  12.0173  12.0405
    12.1584  12.1773  12.1903  12.1960  12.2066  12.2116  12.2141  12.2229
    12.2374  12.2487  12.2509  12.2612  12.2714  12.2827  12.2959  12.3061
    12.3697  12.4211  12.4265  12.4365  12.4466  12.4534  12.4671  12.4734
    12.4807  12.4896  12.4998  12.5069  12.5178  12.5234  12.5332  12.5379
    12.5504  12.5659  12.5699  12.5836  12.5892  12.5920  12.5967  12.6112
    12.6174  12.6222  12.6287  12.6356  12.6479  12.6629  12.6680  12.6750
    12.6771  12.6915  12.7009  12.7029  12.7167  12.7232  12.7334  12.7425
    12.7652  12.7670  12.7834  12.7860  12.7955  12.8060  12.8258  12.8278
    12.8386  12.8457  12.8579  12.8697  12.9367  12.9518  12.9641  12.9829
    12.9920  13.0102  13.0217  13.0268  13.1324  13.1465  13.1547  13.1783
    13.1827  13.1895  13.2002  13.2131  13.2320  13.2462  13.2727  13.2786
    13.2939  13.3025  13.3136  13.3264  13.3325  13.3373  13.3497  13.3562
    13.3616  13.3650  13.3874  13.3909  13.3988  13.4101  13.4171  13.4354
    13.4503  13.4533  13.4710  13.4804  13.4915  13.5074  13.5137  13.5258
    13.5379  13.5508  13.5574  13.5682  13.5808  13.5950  13.6083  13.6104
    13.6394  13.6556  13.6588  13.6735  13.6800  13.6830  13.7002  13.7150
    13.7232  13.7372  13.7550  13.7987  13.8626  13.8672  13.8764  13.8907
    13.9043  13.9184  13.9296  13.9449  13.9594  13.9647  13.9684  13.9784
    13.9840  13.9930  14.0023  14.0088  14.0268  14.0446  14.0500  14.0620
    14.0703  14.0784  14.0806  14.0982  14.1036  14.1189  14.1294  14.1350
    14.1473  14.1501  14.1670  14.1709  14.1917  14.1953  14.2085  14.2152
    14.2204  14.2308  14.2441  14.2518  14.2583  14.2659  14.2759  14.2859
    14.2904  14.3069  14.3086  14.3185  14.3355  14.3395  14.3537  14.3631
    14.3735  14.3796  14.3950  14.4025  14.4129  14.4235  14.4341  14.4459
    14.4483  14.4684  14.4706  14.4759  14.4925  14.5063  14.5240  14.5505
    14.6788  14.7116  14.7194  14.7400  14.7515  14.7639  14.7855  14.8039
    14.9391  14.9649  14.9739  14.9828  15.0227  15.0321  15.0520  15.0916
    15.1658  15.1948  15.2239  15.2394  15.2583  15.2641  15.2763  15.2856
    15.2892  15.3095  15.3261  15.3377  15.3480  15.3655  15.3754  15.4088
    15.5465  15.5630  15.5702  15.5906  15.6119  15.6351  15.6412  15.6483
    15.6487  15.6728  15.6815  15.7056  15.7105  15.7189  15.7268  15.7317
    15.7482  15.7519  15.7624  15.7712  15.7863  15.7901  15.8029  15.8126
    15.8284  15.8515  15.8672  15.8858  15.9000  15.9154  15.9333  15.9491
    15.9596  15.9678  15.9814  15.9944  16.0226  16.0318  16.0363  16.0532
    16.0671  16.0881  16.1272  16.1397  16.1537  16.1816  16.1961  16.2021
    16.2182  16.2287  16.2474  16.2638  16.2728  16.3000  16.3117  16.3260
    16.3375  16.3659  16.4013  16.4295  16.4700  16.4837  16.5097  16.5175
    16.5285  16.5317  16.5502  16.5637  16.5738  16.5845  16.5886  16.5990
    16.6059  16.6132  16.6158  16.6300  16.6369  16.6480  16.6549  16.6605
    16.6756  16.6897  16.7147  16.7778  16.7876  16.8234  16.8352  16.8549
    16.8714  16.8781  16.8876  16.8905  16.9099  16.9122  16.9325  16.9403
    16.9410  16.9513  16.9566  16.9682  16.9716  16.9849  16.9915  16.9943
    17.0018  17.0161  17.0234  17.0421  17.0503  17.0602  17.0632  17.0854
    17.0921  17.0995  17.1260  17.1408  17.1474  17.1523  17.1555  17.1618
    17.1691  17.1783  17.1927  17.1965  17.2034  17.2223  17.2310  17.2368
    17.2441  17.2559  17.2711  17.2757  17.2895  17.2958  17.3133  17.3314
    17.3583  17.3809  17.3970  17.4148  17.4290  17.4359  17.4477  17.4595
    17.4637  17.4655  17.4759  17.4891  17.4919  17.5043  17.5103  17.5163
    17.5171  17.5254  17.5450  17.5515  17.5603  17.5661  17.5841  17.5924
    17.6018  17.6056  17.6083  17.6113  17.6253  17.6333  17.6392  17.6451
    17.6610  17.6736  17.6794  17.6917  17.6977  17.7060  17.7182  17.7386
    17.7566  17.7700  17.7887  17.8083  17.8828  17.9047  17.9240  17.9430
    17.9771  17.9868  18.0136  18.0352  18.0418  18.0544  18.0759  18.0775
    18.1000  18.1133  18.1247  18.1312  18.1408  18.1504  18.1578  18.1702
    18.1832  18.1839  18.1920  18.2012  18.2169  18.2423  18.2487  18.2528
    18.2687  18.2825  18.3077  18.3316  18.3422  18.3741  18.3801  18.4161
    18.4275  18.4555  18.4809  18.4974  18.5117  18.5165  18.5191  18.5332
    18.5364  18.5546  18.5639  18.5743  18.5977  18.6118  18.6153  18.6333
    18.6453  18.6536  18.6732  18.6829  18.7050  18.7270  18.7381  18.7588
    18.8179  18.8412  18.8549  18.8689  18.8796  18.9021  18.9162  18.9296
    18.9436  18.9536  18.9641  18.9726  18.9826  18.9962  18.9986  19.0116
    19.0196  19.0302  19.0361  19.0509  19.0719  19.0887  19.0899  19.1031

     highest occupied, lowest unoccupied level (ev):     7.6944    8.5008

!    total energy              =  -37799.93208076 Ry
     estimated scf accuracy    <       0.00000513 Ry

     The total energy is the sum of the following terms:
     one-electron contribution =  -19605.31177901 Ry
     hartree contribution      =   11800.92604874 Ry
     xc contribution           =   -9549.35442436 Ry
     ewald contribution        =  -20444.45186717 Ry
     Hubbard energy            =      -1.74005897 Ry

     convergence has been achieved in  12 iterations

     Writing all to output data dir ./tmp_In0.0Ga1.0As0.5Sb0.5_cube_3x3x3.7/In0.0Ga1.0As0.5Sb0.5_cube_3x3x3.7.save/ :
     XML data file, charge density, pseudopotentials, collected wavefunctions

     init_run     :    229.36s CPU    232.10s WALL (       1 calls)
     electrons    :   8524.14s CPU   8544.74s WALL (       1 calls)

     Called by init_run:
     wfcinit      :    219.42s CPU    221.64s WALL (       1 calls)
     potinit      :      2.04s CPU      2.11s WALL (       1 calls)
     hinit0       :      1.73s CPU      1.78s WALL (       1 calls)

     Called by electrons:
     c_bands      :   8260.21s CPU   8279.69s WALL (      13 calls)
     sum_band     :    258.94s CPU    259.38s WALL (      13 calls)
     v_of_rho     :      3.34s CPU      3.50s WALL (      13 calls)
     mix_rho      :      0.75s CPU      0.77s WALL (      13 calls)

     Called by c_bands:
     init_us_2    :     30.59s CPU     31.11s WALL (      28 calls)
     cegterg      :   7953.39s CPU   7971.43s WALL (      13 calls)

     Called by *egterg:
     cdiaghg      :    691.99s CPU    692.62s WALL (      96 calls)
     h_psi        :   4759.89s CPU   4770.19s WALL (      98 calls)
     g_psi        :      4.01s CPU      4.01s WALL (      84 calls)

     Called by h_psi:
     h_psi:calbec :    833.92s CPU    833.98s WALL (      98 calls)
     vloc_psi     :    680.44s CPU    682.07s WALL (      98 calls)
     add_vuspsi   :    810.55s CPU    813.35s WALL (      98 calls)
     vhpsi        :   2426.95s CPU   2427.13s WALL (      98 calls)

     General routines
     calbec       :   1059.89s CPU   1059.97s WALL (     210 calls)
     fft          :      3.05s CPU      3.22s WALL (     131 calls)
     ffts         :      0.20s CPU      0.20s WALL (      13 calls)
     fftw         :    684.76s CPU    686.37s WALL (  161274 calls)

     Parallel routines

     Hubbard U routines
     new_ns       :     59.47s CPU     59.47s WALL (      13 calls)
     vhpsi        :   2426.95s CPU   2427.13s WALL (      98 calls)

     PWSCF        :      2h26m CPU      2h27m WALL


   This run was terminated on:  16:59: 6  16Jun2025            

=------------------------------------------------------------------------------=
   JOB DONE.
=------------------------------------------------------------------------------=
