
     Program PWSCF v.7.3.1 starts on 30Jan2026 at 15:59:18 

     This program is part of the open-source Quantum ESPRESSO suite
     for quantum simulation of materials; please cite
         "P. Giannozzi et al., J. Phys.:Condens. Matter 21 395502 (2009);
         "P. Giannozzi et al., J. Phys.:Condens. Matter 29 465901 (2017);
         "P. Giannozzi et al., J. Chem. Phys. 152 154105 (2020);
          URL http://www.quantum-espresso.org", 
     in publications or presentations arising from this work. More details at
     http://www.quantum-espresso.org/quote

     Parallel version (MPI), running on   640 processors

     MPI processes distributed on     5 nodes
     420327 MiB available memory on the printing compute node when the environment starts

     Reading input from In1.0Ga0.0As0.5Sb0.5_cube_3x3x3.6.scf.in
Warning: card &CELL ignored
Warning: card   CELL_DOFREE = 'ALL', ignored
Warning: card / ignored

     Current dimensions of program PWSCF are:
     Max number of different atomic species (ntypx) = 10
     Max number of k-points (npk) =  40000
     Max angular momentum in pseudopotentials (lmaxx) =  4

     K-points division:     npool     =       8
     R & G space division:  proc/nbgrp/npool/nimage =      80
     Subspace diagonalization in iterative solution of the eigenvalue problem:
     one sub-group per band group will be used
     custom distributed-memory algorithm (size of sub-group:  8*  8 procs)


     Parallelization info
     --------------------
     sticks:   dense  smooth     PW     G-vecs:    dense   smooth      PW
     Min         610     610    157               101470   101470   13220
     Max         611     611    159               101475   101475   13227
     Sum       48841   48841  12565              8117825  8117825 1057963

     Using Slab Decomposition



     bravais-lattice index     =            1
     lattice parameter (alat)  =      35.7563  a.u.
     unit-cell volume          =   45714.8116 (a.u.)^3
     number of atoms/cell      =          216
     number of atomic types    =            4
     number of electrons       =      3024.00
     number of Kohn-Sham states=         2160
     kinetic-energy cutoff     =     120.0000  Ry
     charge density cutoff     =     480.0000  Ry
     scf convergence threshold =      1.0E-05
     mixing beta               =       0.6500
     number of iterations used =            8  plain     mixing
     Exchange-correlation= PBE
                           (   1   4   3   4   0   0   0)
     Hubbard projectors: atomic
     Hubbard parameters of DFT+U (Dudarev formulation) in eV:
     U(As-4p) =  3.2600
     U(Ga-4p) = -2.8000
     U(In-5p) = -1.0150
     U(Sb-5p) =  3.1600

     Internal variables: lda_plus_u =T, lda_plus_u_kind = 0

     celldm(1)=  35.756279  celldm(2)=   0.000000  celldm(3)=   0.000000
     celldm(4)=   0.000000  celldm(5)=   0.000000  celldm(6)=   0.000000

     crystal axes: (cart. coord. in units of alat)
               a(1) = (   1.000000   0.000000   0.000000 )  
               a(2) = (   0.000000   1.000000   0.000000 )  
               a(3) = (   0.000000   0.000000   1.000000 )  

     reciprocal axes: (cart. coord. in units 2 pi/alat)
               b(1) = (  1.000000  0.000000  0.000000 )  
               b(2) = (  0.000000  1.000000  0.000000 )  
               b(3) = (  0.000000  0.000000  1.000000 )  


     PseudoPot. # 1 for As read from file:
     /work/i254/i254/gentles/data/pseudos/As.pbe.NC-SR.standard.v0.5.UPF
     MD5 check sum: bfe1a874457ce592347346129958e7cf
     Pseudo is Norm-conserving + core correction, Zval = 15.0
     Generated using ONCVPSP code by D. R. Hamann
     Using radial grid of 1358 points,  6 beta functions with: 
                l(1) =   0
                l(2) =   0
                l(3) =   1
                l(4) =   1
                l(5) =   2
                l(6) =   2

     PseudoPot. # 2 for Ga read from file:
     /work/i254/i254/gentles/data/pseudos/Ga.pbe.NC-SR.standard.v0.5.UPF
     MD5 check sum: 2bb81bf6f0a8d9832cf3329850435ecf
     Pseudo is Norm-conserving + core correction, Zval = 13.0
     Generated using ONCVPSP code by D. R. Hamann
     Using radial grid of 1902 points,  6 beta functions with: 
                l(1) =   0
                l(2) =   0
                l(3) =   1
                l(4) =   1
                l(5) =   2
                l(6) =   2

     PseudoPot. # 3 for In read from file:
     /work/i254/i254/gentles/data/pseudos/In.pbe.NC-SR.standard.v0.5.UPF
     MD5 check sum: 835f4bf908c982ff75c88e16816a8d7f
     Pseudo is Norm-conserving + core correction, Zval = 13.0
     Generated using ONCVPSP code by D. R. Hamann
     Using radial grid of 1964 points,  6 beta functions with: 
                l(1) =   0
                l(2) =   0
                l(3) =   1
                l(4) =   1
                l(5) =   2
                l(6) =   2

     PseudoPot. # 4 for Sb read from file:
     /work/i254/i254/gentles/data/pseudos/Sb.pbe.NC-SR.standard.v0.5.UPF
     MD5 check sum: 127f69b6101c45666faeae1b5d611565
     Pseudo is Norm-conserving + core correction, Zval = 15.0
     Generated using ONCVPSP code by D. R. Hamann
     Using radial grid of 1434 points,  6 beta functions with: 
                l(1) =   0
                l(2) =   0
                l(3) =   1
                l(4) =   1
                l(5) =   2
                l(6) =   2

     atomic species   valence    mass     pseudopotential
     As               15.00    74.92160     As( 1.00)
     Ga               13.00    69.72300     Ga( 1.00)
     In               13.00   114.81800     In( 1.00)
     Sb               15.00   121.76000     Sb( 1.00)

     No symmetry found



   Cartesian axes

     site n.     atom                  positions (alat units)
         1        In     tau(   1) = (  -0.0064440   0.0024200   0.0017090  )
         2        In     tau(   2) = (   0.0045180   0.1719530   0.1751360  )
         3        In     tau(   3) = (   0.1722450   0.0046440   0.1735540  )
         4        In     tau(   4) = (   0.1658750   0.1762060   0.0015820  )
         5        Sb     tau(   5) = (   0.0841840   0.0861090   0.0860190  )
         6        As     tau(   6) = (   0.0885570   0.2510460   0.2537470  )
         7        As     tau(   7) = (   0.2531210   0.0869710   0.2532890  )
         8        As     tau(   8) = (   0.2528670   0.2489380   0.0853460  )
         9        In     tau(   9) = (  -0.0021180   0.0015000   0.3437620  )
        10        In     tau(  10) = (   0.0089490   0.1664250   0.4985680  )
        11        In     tau(  11) = (   0.1683770   0.0000270   0.4908520  )
        12        In     tau(  12) = (   0.1682990   0.1669950   0.3345760  )
        13        As     tau(  13) = (   0.0864410   0.0843100   0.4151710  )
        14        As     tau(  14) = (   0.0841890   0.2538350   0.5788290  )
        15        Sb     tau(  15) = (   0.2505120   0.0854950   0.5785530  )
        16        As     tau(  16) = (   0.2490800   0.2486510   0.4172590  )
        17        In     tau(  17) = (  -0.0024250  -0.0044310   0.6670810  )
        18        In     tau(  18) = (  -0.0018720   0.1704910   0.8375670  )
        19        In     tau(  19) = (   0.1672640   0.0024410   0.8336010  )
        20        In     tau(  20) = (   0.1631670   0.1720150   0.6599590  )
        21        Sb     tau(  21) = (   0.0810670   0.0864490   0.7485220  )
        22        As     tau(  22) = (   0.0809950   0.2511460   0.9177550  )
        23        Sb     tau(  23) = (   0.2509150   0.0884700   0.9192910  )
        24        Sb     tau(  24) = (   0.2518410   0.2519660   0.7471280  )
        25        In     tau(  25) = (  -0.0005310   0.3347830  -0.0050420  )
        26        In     tau(  26) = (  -0.0028030   0.5012900   0.1714170  )
        27        In     tau(  27) = (   0.1689750   0.3259620   0.1662600  )
        28        In     tau(  28) = (   0.1663910   0.5022350  -0.0020910  )
        29        Sb     tau(  29) = (   0.0832820   0.4162160   0.0848600  )
        30        As     tau(  30) = (   0.0811710   0.5802300   0.2532710  )
        31        Sb     tau(  31) = (   0.2497700   0.4149450   0.2512520  )
        32        Sb     tau(  32) = (   0.2517570   0.5839980   0.0857410  )
        33        In     tau(  33) = (   0.0064800   0.3364430   0.3308440  )
        34        In     tau(  34) = (   0.0064850   0.4953670   0.5032610  )
        35        In     tau(  35) = (   0.1692030   0.3345020   0.4982910  )
        36        In     tau(  36) = (   0.1608010   0.4987000   0.3351120  )
        37        As     tau(  37) = (   0.0850090   0.4150020   0.4180070  )
        38        As     tau(  38) = (   0.0856750   0.5822390   0.5808940  )
        39        As     tau(  39) = (   0.2493490   0.4177530   0.5817420  )
        40        Sb     tau(  40) = (   0.2496680   0.5842640   0.4172450  )
        41        In     tau(  41) = (  -0.0022170   0.3283390   0.6626210  )
        42        In     tau(  42) = (   0.0025020   0.5001110   0.8382230  )
        43        In     tau(  43) = (   0.1628310   0.3291440   0.8356290  )
        44        In     tau(  44) = (   0.1701930   0.5035800   0.6625610  )
        45        Sb     tau(  45) = (   0.0832570   0.4162970   0.7470930  )
        46        As     tau(  46) = (   0.0858020   0.5816520   0.9163930  )
        47        Sb     tau(  47) = (   0.2523240   0.4138890   0.9165930  )
        48        As     tau(  48) = (   0.2503600   0.5836770   0.7467870  )
        49        In     tau(  49) = (   0.0025270   0.6584180  -0.0003790  )
        50        In     tau(  50) = (  -0.0020780   0.8394750   0.1634710  )
        51        In     tau(  51) = (   0.1640080   0.6611460   0.1752930  )
        52        In     tau(  52) = (   0.1714580   0.8289260  -0.0042200  )
        53        Sb     tau(  53) = (   0.0843730   0.7475790   0.0846720  )
        54        Sb     tau(  54) = (   0.0833770   0.9188990   0.2553010  )
        55        Sb     tau(  55) = (   0.2530880   0.7483850   0.2550950  )
        56        Sb     tau(  56) = (   0.2534030   0.9161990   0.0858650  )
        57        In     tau(  57) = (   0.0094260   0.6678240   0.3348610  )
        58        In     tau(  58) = (  -0.0051290   0.8299540   0.4942930  )
        59        In     tau(  59) = (   0.1633740   0.6693590   0.5024700  )
        60        In     tau(  60) = (   0.1677600   0.8329120   0.3416200  )
        61        As     tau(  61) = (   0.0842330   0.7508180   0.4194270  )
        62        Sb     tau(  62) = (   0.0834330   0.9144210   0.5773460  )
        63        As     tau(  63) = (   0.2517250   0.7460460   0.5799080  )
        64        As     tau(  64) = (   0.2515360   0.9171830   0.4148580  )
        65        In     tau(  65) = (   0.0007610   0.6655600   0.6563780  )
        66        In     tau(  66) = (  -0.0030940   0.8357080   0.8260520  )
        67        In     tau(  67) = (   0.1700140   0.6610240   0.8350540  )
        68        In     tau(  68) = (   0.1719210   0.8282310   0.6587010  )
        69        Sb     tau(  69) = (   0.0855950   0.7468870   0.7463610  )
        70        Sb     tau(  70) = (   0.0809150   0.9169120   0.9171830  )
        71        As     tau(  71) = (   0.2510270   0.7472610   0.9138350  )
        72        Sb     tau(  72) = (   0.2500940   0.9141340   0.7489360  )
        73        In     tau(  73) = (   0.3378520   0.0062210   0.0054210  )
        74        In     tau(  74) = (   0.3338150   0.1671810   0.1683360  )
        75        In     tau(  75) = (   0.4918020   0.0029830   0.1705170  )
        76        In     tau(  76) = (   0.5001010   0.1685500   0.0023020  )
        77        As     tau(  77) = (   0.4173890   0.0880440   0.0861970  )
        78        As     tau(  78) = (   0.4151270   0.2489050   0.2502770  )
        79        Sb     tau(  79) = (   0.5826210   0.0855230   0.2532340  )
        80        As     tau(  80) = (   0.5796020   0.2496460   0.0863090  )
        81        In     tau(  81) = (   0.3323770   0.0014560   0.3337630  )
        82        In     tau(  82) = (   0.3370710   0.1706880   0.4948500  )
        83        In     tau(  83) = (   0.4998450   0.0006100   0.4901910  )
        84        In     tau(  84) = (   0.4945330   0.1700240   0.3363030  )
        85        As     tau(  85) = (   0.4148690   0.0845590   0.4142130  )
        86        As     tau(  86) = (   0.4156940   0.2535090   0.5775300  )
        87        Sb     tau(  87) = (   0.5845380   0.0837020   0.5784120  )
        88        As     tau(  88) = (   0.5813640   0.2492380   0.4142660  )
        89        In     tau(  89) = (   0.3342390   0.0002820   0.6652820  )
        90        In     tau(  90) = (   0.3381980   0.1733780   0.8377120  )
        91        In     tau(  91) = (   0.5043610   0.0033140   0.8365330  )
        92        In     tau(  92) = (   0.4949430   0.1711840   0.6579410  )
        93        Sb     tau(  93) = (   0.4182320   0.0861680   0.7502080  )
        94        As     tau(  94) = (   0.4172320   0.2518890   0.9225500  )
        95        As     tau(  95) = (   0.5808330   0.0877460   0.9177700  )
        96        Sb     tau(  96) = (   0.5787560   0.2499660   0.7498710  )
        97        In     tau(  97) = (   0.3371020   0.3311690   0.0072040  )
        98        In     tau(  98) = (   0.3397690   0.4978540   0.1680990  )
        99        In     tau(  99) = (   0.4976130   0.3309690   0.1687430  )
       100        In     tau( 100) = (   0.4967750   0.4989130   0.0076250  )
       101        As     tau( 101) = (   0.4181500   0.4138310   0.0877360  )
       102        As     tau( 102) = (   0.4189110   0.5814020   0.2481460  )
       103        As     tau( 103) = (   0.5796630   0.4128430   0.2484930  )
       104        As     tau( 104) = (   0.5777810   0.5809140   0.0873960  )
       105        In     tau( 105) = (   0.3321420   0.3255740   0.3345370  )
       106        In     tau( 106) = (   0.3327570   0.4999980   0.5052710  )
       107        In     tau( 107) = (   0.5049640   0.3296860   0.5004600  )
       108        In     tau( 108) = (   0.4996940   0.4982730   0.3258490  )
       109        Sb     tau( 109) = (   0.4173540   0.4148120   0.4169820  )
       110        As     tau( 110) = (   0.4141860   0.5837680   0.5842260  )
       111        As     tau( 111) = (   0.5789630   0.4153870   0.5825570  )
       112        Sb     tau( 112) = (   0.5794140   0.5847580   0.4168660  )
       113        In     tau( 113) = (   0.3349330   0.3374390   0.6593450  )
       114        In     tau( 114) = (   0.3319910   0.4982440   0.8232790  )
       115        In     tau( 115) = (   0.4894570   0.3341770   0.8337490  )
       116        In     tau( 116) = (   0.4945820   0.4961480   0.6611650  )
       117        As     tau( 117) = (   0.4144320   0.4158050   0.7446310  )
       118        Sb     tau( 118) = (   0.4124980   0.5825250   0.9169550  )
       119        Sb     tau( 119) = (   0.5795810   0.4151400   0.9185880  )
       120        Sb     tau( 120) = (   0.5805020   0.5820820   0.7453310  )
       121        In     tau( 121) = (   0.3320640   0.6745960   0.0016560  )
       122        In     tau( 122) = (   0.3409680   0.8332100   0.1711320  )
       123        In     tau( 123) = (   0.4962840   0.6635340   0.1654100  )
       124        In     tau( 124) = (   0.4968810   0.8284720   0.0069420  )
       125        As     tau( 125) = (   0.4159470   0.7485630   0.0872580  )
       126        As     tau( 126) = (   0.4153400   0.9192150   0.2546990  )
       127        Sb     tau( 127) = (   0.5800780   0.7508360   0.2532250  )
       128        Sb     tau( 128) = (   0.5807360   0.9188420   0.0873810  )
       129        In     tau( 129) = (   0.3437580   0.6635550   0.3342950  )
       130        In     tau( 130) = (   0.3276350   0.8286050   0.4943670  )
       131        In     tau( 131) = (   0.4932970   0.6701940   0.5029790  )
       132        In     tau( 132) = (   0.4959150   0.8379130   0.3386580  )
       133        As     tau( 133) = (   0.4159020   0.7510290   0.4172470  )
       134        Sb     tau( 134) = (   0.4159710   0.9139030   0.5772560  )
       135        As     tau( 135) = (   0.5799990   0.7510390   0.5798040  )
       136        As     tau( 136) = (   0.5839040   0.9162840   0.4158210  )
       137        In     tau( 137) = (   0.3322300   0.6654240   0.6649200  )
       138        In     tau( 138) = (   0.3341670   0.8259650   0.8317370  )
       139        In     tau( 139) = (   0.4938520   0.6679170   0.8279500  )
       140        In     tau( 140) = (   0.4986150   0.8275990   0.6650440  )
       141        As     tau( 141) = (   0.4138450   0.7479350   0.7456810  )
       142        Sb     tau( 142) = (   0.4167510   0.9154880   0.9181890  )
       143        Sb     tau( 143) = (   0.5811540   0.7470810   0.9172680  )
       144        Sb     tau( 144) = (   0.5849840   0.9173480   0.7472860  )
       145        In     tau( 145) = (   0.6598070   0.0059700  -0.0022120  )
       146        In     tau( 146) = (   0.6657610   0.1744010   0.1677790  )
       147        In     tau( 147) = (   0.8322160  -0.0064600   0.1699710  )
       148        In     tau( 148) = (   0.8381060   0.1607070  -0.0015440  )
       149        Sb     tau( 149) = (   0.7488300   0.0830830   0.0861300  )
       150        As     tau( 150) = (   0.7461820   0.2516290   0.2525510  )
       151        Sb     tau( 151) = (   0.9147210   0.0836790   0.2534620  )
       152        Sb     tau( 152) = (   0.9172570   0.2510740   0.0857600  )
       153        In     tau( 153) = (   0.6681300  -0.0033580   0.3360020  )
       154        In     tau( 154) = (   0.6673400   0.1666750   0.4893400  )
       155        In     tau( 155) = (   0.8295170  -0.0012550   0.4959540  )
       156        In     tau( 156) = (   0.8232330   0.1665750   0.3336890  )
       157        As     tau( 157) = (   0.7481580   0.0805640   0.4145390  )
       158        Sb     tau( 158) = (   0.7496400   0.2499600   0.5819010  )
       159        Sb     tau( 159) = (   0.9156760   0.0845320   0.5823130  )
       160        Sb     tau( 160) = (   0.9193220   0.2490030   0.4133490  )
       161        In     tau( 161) = (   0.6756270   0.0000430   0.6629280  )
       162        In     tau( 162) = (   0.6657950   0.1598580   0.8312170  )
       163        In     tau( 163) = (   0.8380220   0.0041680   0.8281480  )
       164        In     tau( 164) = (   0.8327710   0.1685060   0.6742970  )
       165        As     tau( 165) = (   0.7514410   0.0822260   0.7494860  )
       166        Sb     tau( 166) = (   0.7518890   0.2470710   0.9152360  )
       167        As     tau( 167) = (   0.9182410   0.0832350   0.9140870  )
       168        As     tau( 168) = (   0.9189380   0.2500380   0.7511910  )
       169        In     tau( 169) = (   0.6627820   0.3268230   0.0039960  )
       170        In     tau( 170) = (   0.6571710   0.4989550   0.1690310  )
       171        In     tau( 171) = (   0.8330410   0.3330540   0.1771660  )
       172        In     tau( 172) = (   0.8414590   0.4954490   0.0019820  )
       173        Sb     tau( 173) = (   0.7487770   0.4154230   0.0871480  )
       174        Sb     tau( 174) = (   0.7496180   0.5822510   0.2507140  )
       175        As     tau( 175) = (   0.9200380   0.4155050   0.2520510  )
       176        As     tau( 176) = (   0.9206110   0.5791080   0.0829540  )
       177        In     tau( 177) = (   0.6598740   0.3300660   0.3300730  )
       178        In     tau( 178) = (   0.6603440   0.4955610   0.5017800  )
       179        In     tau( 179) = (   0.8399240   0.3358940   0.5025310  )
       180        In     tau( 180) = (   0.8379070   0.4957570   0.3322950  )
       181        Sb     tau( 181) = (   0.7479470   0.4130420   0.4159150  )
       182        Sb     tau( 182) = (   0.7504610   0.5832220   0.5793460  )
       183        As     tau( 183) = (   0.9219520   0.4151430   0.5824100  )
       184        Sb     tau( 184) = (   0.9208670   0.5837260   0.4188620  )
       185        In     tau( 185) = (   0.6608990   0.3363020   0.6629140  )
       186        In     tau( 186) = (   0.6664550   0.4992050   0.8332010  )
       187        In     tau( 187) = (   0.8409240   0.3340150   0.8325270  )
       188        In     tau( 188) = (   0.8394570   0.4967240   0.6606580  )
       189        Sb     tau( 189) = (   0.7522320   0.4156120   0.7471000  )
       190        Sb     tau( 190) = (   0.7514310   0.5810940   0.9208660  )
       191        As     tau( 191) = (   0.9194950   0.4168890   0.9154510  )
       192        Sb     tau( 192) = (   0.9194300   0.5832070   0.7483860  )
       193        In     tau( 193) = (   0.6607770   0.6604240   0.0067180  )
       194        In     tau( 194) = (   0.6695360   0.8382570   0.1747080  )
       195        In     tau( 195) = (   0.8386840   0.6613570   0.1624600  )
       196        In     tau( 196) = (   0.8365060   0.8372610   0.0039000  )
       197        Sb     tau( 197) = (   0.7491650   0.7503640   0.0858290  )
       198        As     tau( 198) = (   0.7511990   0.9171280   0.2552860  )
       199        Sb     tau( 199) = (   0.9178110   0.7507210   0.2515680  )
       200        As     tau( 200) = (   0.9151070   0.9196950   0.0845970  )
       201        In     tau( 201) = (   0.6716420   0.6723520   0.3402960  )
       202        In     tau( 202) = (   0.6630650   0.8352760   0.5010500  )
       203        In     tau( 203) = (   0.8330300   0.6749030   0.4979330  )
       204        In     tau( 204) = (   0.8307640   0.8368150   0.3375260  )
       205        As     tau( 205) = (   0.7493850   0.7569880   0.4203750  )
       206        As     tau( 206) = (   0.7508660   0.9162780   0.5787180  )
       207        As     tau( 207) = (   0.9172100   0.7513450   0.5800010  )
       208        As     tau( 208) = (   0.9138070   0.9166310   0.4183270  )
       209        In     tau( 209) = (   0.6617650   0.6699600   0.6590050  )
       210        In     tau( 210) = (   0.6684180   0.8339300   0.8350170  )
       211        In     tau( 211) = (   0.8309880   0.6673840   0.8311230  )
       212        In     tau( 212) = (   0.8375910   0.8378820   0.6588360  )
       213        Sb     tau( 213) = (   0.7499930   0.7529870   0.7433760  )
       214        Sb     tau( 214) = (   0.7522640   0.9225310   0.9171700  )
       215        Sb     tau( 215) = (   0.9181620   0.7493960   0.9170600  )
       216        As     tau( 216) = (   0.9145770   0.9172170   0.7465640  )

     number of k points=     8
                       cart. coord. in units 2pi/alat
        k(    1) = (   0.0000000   0.0000000   0.0000000), wk =   0.2500000
        k(    2) = (   0.0000000   0.0000000  -0.5000000), wk =   0.2500000
        k(    3) = (   0.0000000  -0.5000000  -0.5000000), wk =   0.2500000
        k(    4) = (  -0.5000000  -0.5000000  -0.5000000), wk =   0.2500000
        k(    5) = (  -0.5000000   0.0000000   0.0000000), wk =   0.2500000
        k(    6) = (   0.0000000  -0.5000000   0.0000000), wk =   0.2500000
        k(    7) = (  -0.5000000   0.0000000   0.5000000), wk =   0.2500000
        k(    8) = (  -0.5000000   0.5000000   0.0000000), wk =   0.2500000

     Dense  grid:  8117825 G-vectors     FFT dimensions: ( 250, 250, 250)

     Estimated max dynamical RAM per process >       3.11 GB

     Estimated total dynamical RAM >    1977.29 GB

     Initial potential from superposition of free atoms

     starting charge    3023.5361, renormalised to    3024.0000

     STARTING HUBBARD OCCUPATIONS:

     =================== HUBBARD OCCUPATIONS ===================
     ------------------------ ATOM    1 ------------------------
     Tr[ns(  1)] =   1.00000
     eigenvalues:
       0.167  0.167  0.167
     eigenvectors (columns):
       1.000  0.000  0.000
       0.000  1.000  0.000
       0.000  0.000  1.000
     occupation matrix ns (before diag.):
       0.167  0.000  0.000
       0.000  0.167  0.000
       0.000  0.000  0.167
     ------------------------ ATOM    2 ------------------------
     Tr[ns(  2)] =   1.00000
     eigenvalues:
       0.167  0.167  0.167
     eigenvectors (columns):
       1.000  0.000  0.000
       0.000  1.000  0.000
       0.000  0.000  1.000
     occupation matrix ns (before diag.):
       0.167  0.000  0.000
       0.000  0.167  0.000
       0.000  0.000  0.167
     ------------------------ ATOM    3 ------------------------
     Tr[ns(  3)] =   1.00000
     eigenvalues:
       0.167  0.167  0.167
     eigenvectors (columns):
       1.000  0.000  0.000
       0.000  1.000  0.000
       0.000  0.000  1.000
     occupation matrix ns (before diag.):
       0.167  0.000  0.000
       0.000  0.167  0.000
       0.000  0.000  0.167
     ------------------------ ATOM    4 ------------------------
     Tr[ns(  4)] =   1.00000
     eigenvalues:
       0.167  0.167  0.167
     eigenvectors (columns):
       1.000  0.000  0.000
       0.000  1.000  0.000
       0.000  0.000  1.000
     occupation matrix ns (before diag.):
       0.167  0.000  0.000
       0.000  0.167  0.000
       0.000  0.000  0.167
     ------------------------ ATOM    5 ------------------------
     Tr[ns(  5)] =   3.00000
     eigenvalues:
       0.500  0.500  0.500
     eigenvectors (columns):
       1.000  0.000  0.000
       0.000  1.000  0.000
       0.000  0.000  1.000
     occupation matrix ns (before diag.):
       0.500  0.000  0.000
       0.000  0.500  0.000
       0.000  0.000  0.500
     ------------------------ ATOM    6 ------------------------
     Tr[ns(  6)] =   3.00000
     eigenvalues:
       0.500  0.500  0.500
     eigenvectors (columns):
       1.000  0.000  0.000
       0.000  1.000  0.000
       0.000  0.000  1.000
     occupation matrix ns (before diag.):
       0.500  0.000  0.000
       0.000  0.500  0.000
       0.000  0.000  0.500
     ------------------------ ATOM    7 ------------------------
     Tr[ns(  7)] =   3.00000
     eigenvalues:
       0.500  0.500  0.500
     eigenvectors (columns):
       1.000  0.000  0.000
       0.000  1.000  0.000
       0.000  0.000  1.000
     occupation matrix ns (before diag.):
       0.500  0.000  0.000
       0.000  0.500  0.000
       0.000  0.000  0.500
     ------------------------ ATOM    8 ------------------------
     Tr[ns(  8)] =   3.00000
     eigenvalues:
       0.500  0.500  0.500
     eigenvectors (columns):
       1.000  0.000  0.000
       0.000  1.000  0.000
       0.000  0.000  1.000
     occupation matrix ns (before diag.):
       0.500  0.000  0.000
       0.000  0.500  0.000
       0.000  0.000  0.500
     ------------------------ ATOM    9 ------------------------
     Tr[ns(  9)] =   1.00000
     eigenvalues:
       0.167  0.167  0.167
     eigenvectors (columns):
       1.000  0.000  0.000
       0.000  1.000  0.000
       0.000  0.000  1.000
     occupation matrix ns (before diag.):
       0.167  0.000  0.000
       0.000  0.167  0.000
       0.000  0.000  0.167
     ------------------------ ATOM   10 ------------------------
     Tr[ns( 10)] =   1.00000
     eigenvalues:
       0.167  0.167  0.167
     eigenvectors (columns):
       1.000  0.000  0.000
       0.000  1.000  0.000
       0.000  0.000  1.000
     occupation matrix ns (before diag.):
       0.167  0.000  0.000
       0.000  0.167  0.000
       0.000  0.000  0.167
     ------------------------ ATOM   11 ------------------------
     Tr[ns( 11)] =   1.00000
     eigenvalues:
       0.167  0.167  0.167
     eigenvectors (columns):
       1.000  0.000  0.000
       0.000  1.000  0.000
       0.000  0.000  1.000
     occupation matrix ns (before diag.):
       0.167  0.000  0.000
       0.000  0.167  0.000
       0.000  0.000  0.167
     ------------------------ ATOM   12 ------------------------
     Tr[ns( 12)] =   1.00000
     eigenvalues:
       0.167  0.167  0.167
     eigenvectors (columns):
       1.000  0.000  0.000
       0.000  1.000  0.000
       0.000  0.000  1.000
     occupation matrix ns (before diag.):
       0.167  0.000  0.000
       0.000  0.167  0.000
       0.000  0.000  0.167
     ------------------------ ATOM   13 ------------------------
     Tr[ns( 13)] =   3.00000
     eigenvalues:
       0.500  0.500  0.500
     eigenvectors (columns):
       1.000  0.000  0.000
       0.000  1.000  0.000
       0.000  0.000  1.000
     occupation matrix ns (before diag.):
       0.500  0.000  0.000
       0.000  0.500  0.000
       0.000  0.000  0.500
     ------------------------ ATOM   14 ------------------------
     Tr[ns( 14)] =   3.00000
     eigenvalues:
       0.500  0.500  0.500
     eigenvectors (columns):
       1.000  0.000  0.000
       0.000  1.000  0.000
       0.000  0.000  1.000
     occupation matrix ns (before diag.):
       0.500  0.000  0.000
       0.000  0.500  0.000
       0.000  0.000  0.500
     ------------------------ ATOM   15 ------------------------
     Tr[ns( 15)] =   3.00000
     eigenvalues:
       0.500  0.500  0.500
     eigenvectors (columns):
       1.000  0.000  0.000
       0.000  1.000  0.000
       0.000  0.000  1.000
     occupation matrix ns (before diag.):
       0.500  0.000  0.000
       0.000  0.500  0.000
       0.000  0.000  0.500
     ------------------------ ATOM   16 ------------------------
     Tr[ns( 16)] =   3.00000
     eigenvalues:
       0.500  0.500  0.500
     eigenvectors (columns):
       1.000  0.000  0.000
       0.000  1.000  0.000
       0.000  0.000  1.000
     occupation matrix ns (before diag.):
       0.500  0.000  0.000
       0.000  0.500  0.000
       0.000  0.000  0.500
     ------------------------ ATOM   17 ------------------------
     Tr[ns( 17)] =   1.00000
     eigenvalues:
       0.167  0.167  0.167
     eigenvectors (columns):
       1.000  0.000  0.000
       0.000  1.000  0.000
       0.000  0.000  1.000
     occupation matrix ns (before diag.):
       0.167  0.000  0.000
       0.000  0.167  0.000
       0.000  0.000  0.167
     ------------------------ ATOM   18 ------------------------
     Tr[ns( 18)] =   1.00000
     eigenvalues:
       0.167  0.167  0.167
     eigenvectors (columns):
       1.000  0.000  0.000
       0.000  1.000  0.000
       0.000  0.000  1.000
     occupation matrix ns (before diag.):
       0.167  0.000  0.000
       0.000  0.167  0.000
       0.000  0.000  0.167
     ------------------------ ATOM   19 ------------------------
     Tr[ns( 19)] =   1.00000
     eigenvalues:
       0.167  0.167  0.167
     eigenvectors (columns):
       1.000  0.000  0.000
       0.000  1.000  0.000
       0.000  0.000  1.000
     occupation matrix ns (before diag.):
       0.167  0.000  0.000
       0.000  0.167  0.000
       0.000  0.000  0.167
     ------------------------ ATOM   20 ------------------------
     Tr[ns( 20)] =   1.00000
     eigenvalues:
       0.167  0.167  0.167
     eigenvectors (columns):
       1.000  0.000  0.000
       0.000  1.000  0.000
       0.000  0.000  1.000
     occupation matrix ns (before diag.):
       0.167  0.000  0.000
       0.000  0.167  0.000
       0.000  0.000  0.167
     ------------------------ ATOM   21 ------------------------
     Tr[ns( 21)] =   3.00000
     eigenvalues:
       0.500  0.500  0.500
     eigenvectors (columns):
       1.000  0.000  0.000
       0.000  1.000  0.000
       0.000  0.000  1.000
     occupation matrix ns (before diag.):
       0.500  0.000  0.000
       0.000  0.500  0.000
       0.000  0.000  0.500
     ------------------------ ATOM   22 ------------------------
     Tr[ns( 22)] =   3.00000
     eigenvalues:
       0.500  0.500  0.500
     eigenvectors (columns):
       1.000  0.000  0.000
       0.000  1.000  0.000
       0.000  0.000  1.000
     occupation matrix ns (before diag.):
       0.500  0.000  0.000
       0.000  0.500  0.000
       0.000  0.000  0.500
     ------------------------ ATOM   23 ------------------------
     Tr[ns( 23)] =   3.00000
     eigenvalues:
       0.500  0.500  0.500
     eigenvectors (columns):
       1.000  0.000  0.000
       0.000  1.000  0.000
       0.000  0.000  1.000
     occupation matrix ns (before diag.):
       0.500  0.000  0.000
       0.000  0.500  0.000
       0.000  0.000  0.500
     ------------------------ ATOM   24 ------------------------
     Tr[ns( 24)] =   3.00000
     eigenvalues:
       0.500  0.500  0.500
     eigenvectors (columns):
       1.000  0.000  0.000
       0.000  1.000  0.000
       0.000  0.000  1.000
     occupation matrix ns (before diag.):
       0.500  0.000  0.000
       0.000  0.500  0.000
       0.000  0.000  0.500
     ------------------------ ATOM   25 ------------------------
     Tr[ns( 25)] =   1.00000
     eigenvalues:
       0.167  0.167  0.167
     eigenvectors (columns):
       1.000  0.000  0.000
       0.000  1.000  0.000
       0.000  0.000  1.000
     occupation matrix ns (before diag.):
       0.167  0.000  0.000
       0.000  0.167  0.000
       0.000  0.000  0.167
     ------------------------ ATOM   26 ------------------------
     Tr[ns( 26)] =   1.00000
     eigenvalues:
       0.167  0.167  0.167
     eigenvectors (columns):
       1.000  0.000  0.000
       0.000  1.000  0.000
       0.000  0.000  1.000
     occupation matrix ns (before diag.):
       0.167  0.000  0.000
       0.000  0.167  0.000
       0.000  0.000  0.167
     ------------------------ ATOM   27 ------------------------
     Tr[ns( 27)] =   1.00000
     eigenvalues:
       0.167  0.167  0.167
     eigenvectors (columns):
       1.000  0.000  0.000
       0.000  1.000  0.000
       0.000  0.000  1.000
     occupation matrix ns (before diag.):
       0.167  0.000  0.000
       0.000  0.167  0.000
       0.000  0.000  0.167
     ------------------------ ATOM   28 ------------------------
     Tr[ns( 28)] =   1.00000
     eigenvalues:
       0.167  0.167  0.167
     eigenvectors (columns):
       1.000  0.000  0.000
       0.000  1.000  0.000
       0.000  0.000  1.000
     occupation matrix ns (before diag.):
       0.167  0.000  0.000
       0.000  0.167  0.000
       0.000  0.000  0.167
     ------------------------ ATOM   29 ------------------------
     Tr[ns( 29)] =   3.00000
     eigenvalues:
       0.500  0.500  0.500
     eigenvectors (columns):
       1.000  0.000  0.000
       0.000  1.000  0.000
       0.000  0.000  1.000
     occupation matrix ns (before diag.):
       0.500  0.000  0.000
       0.000  0.500  0.000
       0.000  0.000  0.500
     ------------------------ ATOM   30 ------------------------
     Tr[ns( 30)] =   3.00000
     eigenvalues:
       0.500  0.500  0.500
     eigenvectors (columns):
       1.000  0.000  0.000
       0.000  1.000  0.000
       0.000  0.000  1.000
     occupation matrix ns (before diag.):
       0.500  0.000  0.000
       0.000  0.500  0.000
       0.000  0.000  0.500
     ------------------------ ATOM   31 ------------------------
     Tr[ns( 31)] =   3.00000
     eigenvalues:
       0.500  0.500  0.500
     eigenvectors (columns):
       1.000  0.000  0.000
       0.000  1.000  0.000
       0.000  0.000  1.000
     occupation matrix ns (before diag.):
       0.500  0.000  0.000
       0.000  0.500  0.000
       0.000  0.000  0.500
     ------------------------ ATOM   32 ------------------------
     Tr[ns( 32)] =   3.00000
     eigenvalues:
       0.500  0.500  0.500
     eigenvectors (columns):
       1.000  0.000  0.000
       0.000  1.000  0.000
       0.000  0.000  1.000
     occupation matrix ns (before diag.):
       0.500  0.000  0.000
       0.000  0.500  0.000
       0.000  0.000  0.500
     ------------------------ ATOM   33 ------------------------
     Tr[ns( 33)] =   1.00000
     eigenvalues:
       0.167  0.167  0.167
     eigenvectors (columns):
       1.000  0.000  0.000
       0.000  1.000  0.000
       0.000  0.000  1.000
     occupation matrix ns (before diag.):
       0.167  0.000  0.000
       0.000  0.167  0.000
       0.000  0.000  0.167
     ------------------------ ATOM   34 ------------------------
     Tr[ns( 34)] =   1.00000
     eigenvalues:
       0.167  0.167  0.167
     eigenvectors (columns):
       1.000  0.000  0.000
       0.000  1.000  0.000
       0.000  0.000  1.000
     occupation matrix ns (before diag.):
       0.167  0.000  0.000
       0.000  0.167  0.000
       0.000  0.000  0.167
     ------------------------ ATOM   35 ------------------------
     Tr[ns( 35)] =   1.00000
     eigenvalues:
       0.167  0.167  0.167
     eigenvectors (columns):
       1.000  0.000  0.000
       0.000  1.000  0.000
       0.000  0.000  1.000
     occupation matrix ns (before diag.):
       0.167  0.000  0.000
       0.000  0.167  0.000
       0.000  0.000  0.167
     ------------------------ ATOM   36 ------------------------
     Tr[ns( 36)] =   1.00000
     eigenvalues:
       0.167  0.167  0.167
     eigenvectors (columns):
       1.000  0.000  0.000
       0.000  1.000  0.000
       0.000  0.000  1.000
     occupation matrix ns (before diag.):
       0.167  0.000  0.000
       0.000  0.167  0.000
       0.000  0.000  0.167
     ------------------------ ATOM   37 ------------------------
     Tr[ns( 37)] =   3.00000
     eigenvalues:
       0.500  0.500  0.500
     eigenvectors (columns):
       1.000  0.000  0.000
       0.000  1.000  0.000
       0.000  0.000  1.000
     occupation matrix ns (before diag.):
       0.500  0.000  0.000
       0.000  0.500  0.000
       0.000  0.000  0.500
     ------------------------ ATOM   38 ------------------------
     Tr[ns( 38)] =   3.00000
     eigenvalues:
       0.500  0.500  0.500
     eigenvectors (columns):
       1.000  0.000  0.000
       0.000  1.000  0.000
       0.000  0.000  1.000
     occupation matrix ns (before diag.):
       0.500  0.000  0.000
       0.000  0.500  0.000
       0.000  0.000  0.500
     ------------------------ ATOM   39 ------------------------
     Tr[ns( 39)] =   3.00000
     eigenvalues:
       0.500  0.500  0.500
     eigenvectors (columns):
       1.000  0.000  0.000
       0.000  1.000  0.000
       0.000  0.000  1.000
     occupation matrix ns (before diag.):
       0.500  0.000  0.000
       0.000  0.500  0.000
       0.000  0.000  0.500
     ------------------------ ATOM   40 ------------------------
     Tr[ns( 40)] =   3.00000
     eigenvalues:
       0.500  0.500  0.500
     eigenvectors (columns):
       1.000  0.000  0.000
       0.000  1.000  0.000
       0.000  0.000  1.000
     occupation matrix ns (before diag.):
       0.500  0.000  0.000
       0.000  0.500  0.000
       0.000  0.000  0.500
     ------------------------ ATOM   41 ------------------------
     Tr[ns( 41)] =   1.00000
     eigenvalues:
       0.167  0.167  0.167
     eigenvectors (columns):
       1.000  0.000  0.000
       0.000  1.000  0.000
       0.000  0.000  1.000
     occupation matrix ns (before diag.):
       0.167  0.000  0.000
       0.000  0.167  0.000
       0.000  0.000  0.167
     ------------------------ ATOM   42 ------------------------
     Tr[ns( 42)] =   1.00000
     eigenvalues:
       0.167  0.167  0.167
     eigenvectors (columns):
       1.000  0.000  0.000
       0.000  1.000  0.000
       0.000  0.000  1.000
     occupation matrix ns (before diag.):
       0.167  0.000  0.000
       0.000  0.167  0.000
       0.000  0.000  0.167
     ------------------------ ATOM   43 ------------------------
     Tr[ns( 43)] =   1.00000
     eigenvalues:
       0.167  0.167  0.167
     eigenvectors (columns):
       1.000  0.000  0.000
       0.000  1.000  0.000
       0.000  0.000  1.000
     occupation matrix ns (before diag.):
       0.167  0.000  0.000
       0.000  0.167  0.000
       0.000  0.000  0.167
     ------------------------ ATOM   44 ------------------------
     Tr[ns( 44)] =   1.00000
     eigenvalues:
       0.167  0.167  0.167
     eigenvectors (columns):
       1.000  0.000  0.000
       0.000  1.000  0.000
       0.000  0.000  1.000
     occupation matrix ns (before diag.):
       0.167  0.000  0.000
       0.000  0.167  0.000
       0.000  0.000  0.167
     ------------------------ ATOM   45 ------------------------
     Tr[ns( 45)] =   3.00000
     eigenvalues:
       0.500  0.500  0.500
     eigenvectors (columns):
       1.000  0.000  0.000
       0.000  1.000  0.000
       0.000  0.000  1.000
     occupation matrix ns (before diag.):
       0.500  0.000  0.000
       0.000  0.500  0.000
       0.000  0.000  0.500
     ------------------------ ATOM   46 ------------------------
     Tr[ns( 46)] =   3.00000
     eigenvalues:
       0.500  0.500  0.500
     eigenvectors (columns):
       1.000  0.000  0.000
       0.000  1.000  0.000
       0.000  0.000  1.000
     occupation matrix ns (before diag.):
       0.500  0.000  0.000
       0.000  0.500  0.000
       0.000  0.000  0.500
     ------------------------ ATOM   47 ------------------------
     Tr[ns( 47)] =   3.00000
     eigenvalues:
       0.500  0.500  0.500
     eigenvectors (columns):
       1.000  0.000  0.000
       0.000  1.000  0.000
       0.000  0.000  1.000
     occupation matrix ns (before diag.):
       0.500  0.000  0.000
       0.000  0.500  0.000
       0.000  0.000  0.500
     ------------------------ ATOM   48 ------------------------
     Tr[ns( 48)] =   3.00000
     eigenvalues:
       0.500  0.500  0.500
     eigenvectors (columns):
       1.000  0.000  0.000
       0.000  1.000  0.000
       0.000  0.000  1.000
     occupation matrix ns (before diag.):
       0.500  0.000  0.000
       0.000  0.500  0.000
       0.000  0.000  0.500
     ------------------------ ATOM   49 ------------------------
     Tr[ns( 49)] =   1.00000
     eigenvalues:
       0.167  0.167  0.167
     eigenvectors (columns):
       1.000  0.000  0.000
       0.000  1.000  0.000
       0.000  0.000  1.000
     occupation matrix ns (before diag.):
       0.167  0.000  0.000
       0.000  0.167  0.000
       0.000  0.000  0.167
     ------------------------ ATOM   50 ------------------------
     Tr[ns( 50)] =   1.00000
     eigenvalues:
       0.167  0.167  0.167
     eigenvectors (columns):
       1.000  0.000  0.000
       0.000  1.000  0.000
       0.000  0.000  1.000
     occupation matrix ns (before diag.):
       0.167  0.000  0.000
       0.000  0.167  0.000
       0.000  0.000  0.167
     ------------------------ ATOM   51 ------------------------
     Tr[ns( 51)] =   1.00000
     eigenvalues:
       0.167  0.167  0.167
     eigenvectors (columns):
       1.000  0.000  0.000
       0.000  1.000  0.000
       0.000  0.000  1.000
     occupation matrix ns (before diag.):
       0.167  0.000  0.000
       0.000  0.167  0.000
       0.000  0.000  0.167
     ------------------------ ATOM   52 ------------------------
     Tr[ns( 52)] =   1.00000
     eigenvalues:
       0.167  0.167  0.167
     eigenvectors (columns):
       1.000  0.000  0.000
       0.000  1.000  0.000
       0.000  0.000  1.000
     occupation matrix ns (before diag.):
       0.167  0.000  0.000
       0.000  0.167  0.000
       0.000  0.000  0.167
     ------------------------ ATOM   53 ------------------------
     Tr[ns( 53)] =   3.00000
     eigenvalues:
       0.500  0.500  0.500
     eigenvectors (columns):
       1.000  0.000  0.000
       0.000  1.000  0.000
       0.000  0.000  1.000
     occupation matrix ns (before diag.):
       0.500  0.000  0.000
       0.000  0.500  0.000
       0.000  0.000  0.500
     ------------------------ ATOM   54 ------------------------
     Tr[ns( 54)] =   3.00000
     eigenvalues:
       0.500  0.500  0.500
     eigenvectors (columns):
       1.000  0.000  0.000
       0.000  1.000  0.000
       0.000  0.000  1.000
     occupation matrix ns (before diag.):
       0.500  0.000  0.000
       0.000  0.500  0.000
       0.000  0.000  0.500
     ------------------------ ATOM   55 ------------------------
     Tr[ns( 55)] =   3.00000
     eigenvalues:
       0.500  0.500  0.500
     eigenvectors (columns):
       1.000  0.000  0.000
       0.000  1.000  0.000
       0.000  0.000  1.000
     occupation matrix ns (before diag.):
       0.500  0.000  0.000
       0.000  0.500  0.000
       0.000  0.000  0.500
     ------------------------ ATOM   56 ------------------------
     Tr[ns( 56)] =   3.00000
     eigenvalues:
       0.500  0.500  0.500
     eigenvectors (columns):
       1.000  0.000  0.000
       0.000  1.000  0.000
       0.000  0.000  1.000
     occupation matrix ns (before diag.):
       0.500  0.000  0.000
       0.000  0.500  0.000
       0.000  0.000  0.500
     ------------------------ ATOM   57 ------------------------
     Tr[ns( 57)] =   1.00000
     eigenvalues:
       0.167  0.167  0.167
     eigenvectors (columns):
       1.000  0.000  0.000
       0.000  1.000  0.000
       0.000  0.000  1.000
     occupation matrix ns (before diag.):
       0.167  0.000  0.000
       0.000  0.167  0.000
       0.000  0.000  0.167
     ------------------------ ATOM   58 ------------------------
     Tr[ns( 58)] =   1.00000
     eigenvalues:
       0.167  0.167  0.167
     eigenvectors (columns):
       1.000  0.000  0.000
       0.000  1.000  0.000
       0.000  0.000  1.000
     occupation matrix ns (before diag.):
       0.167  0.000  0.000
       0.000  0.167  0.000
       0.000  0.000  0.167
     ------------------------ ATOM   59 ------------------------
     Tr[ns( 59)] =   1.00000
     eigenvalues:
       0.167  0.167  0.167
     eigenvectors (columns):
       1.000  0.000  0.000
       0.000  1.000  0.000
       0.000  0.000  1.000
     occupation matrix ns (before diag.):
       0.167  0.000  0.000
       0.000  0.167  0.000
       0.000  0.000  0.167
     ------------------------ ATOM   60 ------------------------
     Tr[ns( 60)] =   1.00000
     eigenvalues:
       0.167  0.167  0.167
     eigenvectors (columns):
       1.000  0.000  0.000
       0.000  1.000  0.000
       0.000  0.000  1.000
     occupation matrix ns (before diag.):
       0.167  0.000  0.000
       0.000  0.167  0.000
       0.000  0.000  0.167
     ------------------------ ATOM   61 ------------------------
     Tr[ns( 61)] =   3.00000
     eigenvalues:
       0.500  0.500  0.500
     eigenvectors (columns):
       1.000  0.000  0.000
       0.000  1.000  0.000
       0.000  0.000  1.000
     occupation matrix ns (before diag.):
       0.500  0.000  0.000
       0.000  0.500  0.000
       0.000  0.000  0.500
     ------------------------ ATOM   62 ------------------------
     Tr[ns( 62)] =   3.00000
     eigenvalues:
       0.500  0.500  0.500
     eigenvectors (columns):
       1.000  0.000  0.000
       0.000  1.000  0.000
       0.000  0.000  1.000
     occupation matrix ns (before diag.):
       0.500  0.000  0.000
       0.000  0.500  0.000
       0.000  0.000  0.500
     ------------------------ ATOM   63 ------------------------
     Tr[ns( 63)] =   3.00000
     eigenvalues:
       0.500  0.500  0.500
     eigenvectors (columns):
       1.000  0.000  0.000
       0.000  1.000  0.000
       0.000  0.000  1.000
     occupation matrix ns (before diag.):
       0.500  0.000  0.000
       0.000  0.500  0.000
       0.000  0.000  0.500
     ------------------------ ATOM   64 ------------------------
     Tr[ns( 64)] =   3.00000
     eigenvalues:
       0.500  0.500  0.500
     eigenvectors (columns):
       1.000  0.000  0.000
       0.000  1.000  0.000
       0.000  0.000  1.000
     occupation matrix ns (before diag.):
       0.500  0.000  0.000
       0.000  0.500  0.000
       0.000  0.000  0.500
     ------------------------ ATOM   65 ------------------------
     Tr[ns( 65)] =   1.00000
     eigenvalues:
       0.167  0.167  0.167
     eigenvectors (columns):
       1.000  0.000  0.000
       0.000  1.000  0.000
       0.000  0.000  1.000
     occupation matrix ns (before diag.):
       0.167  0.000  0.000
       0.000  0.167  0.000
       0.000  0.000  0.167
     ------------------------ ATOM   66 ------------------------
     Tr[ns( 66)] =   1.00000
     eigenvalues:
       0.167  0.167  0.167
     eigenvectors (columns):
       1.000  0.000  0.000
       0.000  1.000  0.000
       0.000  0.000  1.000
     occupation matrix ns (before diag.):
       0.167  0.000  0.000
       0.000  0.167  0.000
       0.000  0.000  0.167
     ------------------------ ATOM   67 ------------------------
     Tr[ns( 67)] =   1.00000
     eigenvalues:
       0.167  0.167  0.167
     eigenvectors (columns):
       1.000  0.000  0.000
       0.000  1.000  0.000
       0.000  0.000  1.000
     occupation matrix ns (before diag.):
       0.167  0.000  0.000
       0.000  0.167  0.000
       0.000  0.000  0.167
     ------------------------ ATOM   68 ------------------------
     Tr[ns( 68)] =   1.00000
     eigenvalues:
       0.167  0.167  0.167
     eigenvectors (columns):
       1.000  0.000  0.000
       0.000  1.000  0.000
       0.000  0.000  1.000
     occupation matrix ns (before diag.):
       0.167  0.000  0.000
       0.000  0.167  0.000
       0.000  0.000  0.167
     ------------------------ ATOM   69 ------------------------
     Tr[ns( 69)] =   3.00000
     eigenvalues:
       0.500  0.500  0.500
     eigenvectors (columns):
       1.000  0.000  0.000
       0.000  1.000  0.000
       0.000  0.000  1.000
     occupation matrix ns (before diag.):
       0.500  0.000  0.000
       0.000  0.500  0.000
       0.000  0.000  0.500
     ------------------------ ATOM   70 ------------------------
     Tr[ns( 70)] =   3.00000
     eigenvalues:
       0.500  0.500  0.500
     eigenvectors (columns):
       1.000  0.000  0.000
       0.000  1.000  0.000
       0.000  0.000  1.000
     occupation matrix ns (before diag.):
       0.500  0.000  0.000
       0.000  0.500  0.000
       0.000  0.000  0.500
     ------------------------ ATOM   71 ------------------------
     Tr[ns( 71)] =   3.00000
     eigenvalues:
       0.500  0.500  0.500
     eigenvectors (columns):
       1.000  0.000  0.000
       0.000  1.000  0.000
       0.000  0.000  1.000
     occupation matrix ns (before diag.):
       0.500  0.000  0.000
       0.000  0.500  0.000
       0.000  0.000  0.500
     ------------------------ ATOM   72 ------------------------
     Tr[ns( 72)] =   3.00000
     eigenvalues:
       0.500  0.500  0.500
     eigenvectors (columns):
       1.000  0.000  0.000
       0.000  1.000  0.000
       0.000  0.000  1.000
     occupation matrix ns (before diag.):
       0.500  0.000  0.000
       0.000  0.500  0.000
       0.000  0.000  0.500
     ------------------------ ATOM   73 ------------------------
     Tr[ns( 73)] =   1.00000
     eigenvalues:
       0.167  0.167  0.167
     eigenvectors (columns):
       1.000  0.000  0.000
       0.000  1.000  0.000
       0.000  0.000  1.000
     occupation matrix ns (before diag.):
       0.167  0.000  0.000
       0.000  0.167  0.000
       0.000  0.000  0.167
     ------------------------ ATOM   74 ------------------------
     Tr[ns( 74)] =   1.00000
     eigenvalues:
       0.167  0.167  0.167
     eigenvectors (columns):
       1.000  0.000  0.000
       0.000  1.000  0.000
       0.000  0.000  1.000
     occupation matrix ns (before diag.):
       0.167  0.000  0.000
       0.000  0.167  0.000
       0.000  0.000  0.167
     ------------------------ ATOM   75 ------------------------
     Tr[ns( 75)] =   1.00000
     eigenvalues:
       0.167  0.167  0.167
     eigenvectors (columns):
       1.000  0.000  0.000
       0.000  1.000  0.000
       0.000  0.000  1.000
     occupation matrix ns (before diag.):
       0.167  0.000  0.000
       0.000  0.167  0.000
       0.000  0.000  0.167
     ------------------------ ATOM   76 ------------------------
     Tr[ns( 76)] =   1.00000
     eigenvalues:
       0.167  0.167  0.167
     eigenvectors (columns):
       1.000  0.000  0.000
       0.000  1.000  0.000
       0.000  0.000  1.000
     occupation matrix ns (before diag.):
       0.167  0.000  0.000
       0.000  0.167  0.000
       0.000  0.000  0.167
     ------------------------ ATOM   77 ------------------------
     Tr[ns( 77)] =   3.00000
     eigenvalues:
       0.500  0.500  0.500
     eigenvectors (columns):
       1.000  0.000  0.000
       0.000  1.000  0.000
       0.000  0.000  1.000
     occupation matrix ns (before diag.):
       0.500  0.000  0.000
       0.000  0.500  0.000
       0.000  0.000  0.500
     ------------------------ ATOM   78 ------------------------
     Tr[ns( 78)] =   3.00000
     eigenvalues:
       0.500  0.500  0.500
     eigenvectors (columns):
       1.000  0.000  0.000
       0.000  1.000  0.000
       0.000  0.000  1.000
     occupation matrix ns (before diag.):
       0.500  0.000  0.000
       0.000  0.500  0.000
       0.000  0.000  0.500
     ------------------------ ATOM   79 ------------------------
     Tr[ns( 79)] =   3.00000
     eigenvalues:
       0.500  0.500  0.500
     eigenvectors (columns):
       1.000  0.000  0.000
       0.000  1.000  0.000
       0.000  0.000  1.000
     occupation matrix ns (before diag.):
       0.500  0.000  0.000
       0.000  0.500  0.000
       0.000  0.000  0.500
     ------------------------ ATOM   80 ------------------------
     Tr[ns( 80)] =   3.00000
     eigenvalues:
       0.500  0.500  0.500
     eigenvectors (columns):
       1.000  0.000  0.000
       0.000  1.000  0.000
       0.000  0.000  1.000
     occupation matrix ns (before diag.):
       0.500  0.000  0.000
       0.000  0.500  0.000
       0.000  0.000  0.500
     ------------------------ ATOM   81 ------------------------
     Tr[ns( 81)] =   1.00000
     eigenvalues:
       0.167  0.167  0.167
     eigenvectors (columns):
       1.000  0.000  0.000
       0.000  1.000  0.000
       0.000  0.000  1.000
     occupation matrix ns (before diag.):
       0.167  0.000  0.000
       0.000  0.167  0.000
       0.000  0.000  0.167
     ------------------------ ATOM   82 ------------------------
     Tr[ns( 82)] =   1.00000
     eigenvalues:
       0.167  0.167  0.167
     eigenvectors (columns):
       1.000  0.000  0.000
       0.000  1.000  0.000
       0.000  0.000  1.000
     occupation matrix ns (before diag.):
       0.167  0.000  0.000
       0.000  0.167  0.000
       0.000  0.000  0.167
     ------------------------ ATOM   83 ------------------------
     Tr[ns( 83)] =   1.00000
     eigenvalues:
       0.167  0.167  0.167
     eigenvectors (columns):
       1.000  0.000  0.000
       0.000  1.000  0.000
       0.000  0.000  1.000
     occupation matrix ns (before diag.):
       0.167  0.000  0.000
       0.000  0.167  0.000
       0.000  0.000  0.167
     ------------------------ ATOM   84 ------------------------
     Tr[ns( 84)] =   1.00000
     eigenvalues:
       0.167  0.167  0.167
     eigenvectors (columns):
       1.000  0.000  0.000
       0.000  1.000  0.000
       0.000  0.000  1.000
     occupation matrix ns (before diag.):
       0.167  0.000  0.000
       0.000  0.167  0.000
       0.000  0.000  0.167
     ------------------------ ATOM   85 ------------------------
     Tr[ns( 85)] =   3.00000
     eigenvalues:
       0.500  0.500  0.500
     eigenvectors (columns):
       1.000  0.000  0.000
       0.000  1.000  0.000
       0.000  0.000  1.000
     occupation matrix ns (before diag.):
       0.500  0.000  0.000
       0.000  0.500  0.000
       0.000  0.000  0.500
     ------------------------ ATOM   86 ------------------------
     Tr[ns( 86)] =   3.00000
     eigenvalues:
       0.500  0.500  0.500
     eigenvectors (columns):
       1.000  0.000  0.000
       0.000  1.000  0.000
       0.000  0.000  1.000
     occupation matrix ns (before diag.):
       0.500  0.000  0.000
       0.000  0.500  0.000
       0.000  0.000  0.500
     ------------------------ ATOM   87 ------------------------
     Tr[ns( 87)] =   3.00000
     eigenvalues:
       0.500  0.500  0.500
     eigenvectors (columns):
       1.000  0.000  0.000
       0.000  1.000  0.000
       0.000  0.000  1.000
     occupation matrix ns (before diag.):
       0.500  0.000  0.000
       0.000  0.500  0.000
       0.000  0.000  0.500
     ------------------------ ATOM   88 ------------------------
     Tr[ns( 88)] =   3.00000
     eigenvalues:
       0.500  0.500  0.500
     eigenvectors (columns):
       1.000  0.000  0.000
       0.000  1.000  0.000
       0.000  0.000  1.000
     occupation matrix ns (before diag.):
       0.500  0.000  0.000
       0.000  0.500  0.000
       0.000  0.000  0.500
     ------------------------ ATOM   89 ------------------------
     Tr[ns( 89)] =   1.00000
     eigenvalues:
       0.167  0.167  0.167
     eigenvectors (columns):
       1.000  0.000  0.000
       0.000  1.000  0.000
       0.000  0.000  1.000
     occupation matrix ns (before diag.):
       0.167  0.000  0.000
       0.000  0.167  0.000
       0.000  0.000  0.167
     ------------------------ ATOM   90 ------------------------
     Tr[ns( 90)] =   1.00000
     eigenvalues:
       0.167  0.167  0.167
     eigenvectors (columns):
       1.000  0.000  0.000
       0.000  1.000  0.000
       0.000  0.000  1.000
     occupation matrix ns (before diag.):
       0.167  0.000  0.000
       0.000  0.167  0.000
       0.000  0.000  0.167
     ------------------------ ATOM   91 ------------------------
     Tr[ns( 91)] =   1.00000
     eigenvalues:
       0.167  0.167  0.167
     eigenvectors (columns):
       1.000  0.000  0.000
       0.000  1.000  0.000
       0.000  0.000  1.000
     occupation matrix ns (before diag.):
       0.167  0.000  0.000
       0.000  0.167  0.000
       0.000  0.000  0.167
     ------------------------ ATOM   92 ------------------------
     Tr[ns( 92)] =   1.00000
     eigenvalues:
       0.167  0.167  0.167
     eigenvectors (columns):
       1.000  0.000  0.000
       0.000  1.000  0.000
       0.000  0.000  1.000
     occupation matrix ns (before diag.):
       0.167  0.000  0.000
       0.000  0.167  0.000
       0.000  0.000  0.167
     ------------------------ ATOM   93 ------------------------
     Tr[ns( 93)] =   3.00000
     eigenvalues:
       0.500  0.500  0.500
     eigenvectors (columns):
       1.000  0.000  0.000
       0.000  1.000  0.000
       0.000  0.000  1.000
     occupation matrix ns (before diag.):
       0.500  0.000  0.000
       0.000  0.500  0.000
       0.000  0.000  0.500
     ------------------------ ATOM   94 ------------------------
     Tr[ns( 94)] =   3.00000
     eigenvalues:
       0.500  0.500  0.500
     eigenvectors (columns):
       1.000  0.000  0.000
       0.000  1.000  0.000
       0.000  0.000  1.000
     occupation matrix ns (before diag.):
       0.500  0.000  0.000
       0.000  0.500  0.000
       0.000  0.000  0.500
     ------------------------ ATOM   95 ------------------------
     Tr[ns( 95)] =   3.00000
     eigenvalues:
       0.500  0.500  0.500
     eigenvectors (columns):
       1.000  0.000  0.000
       0.000  1.000  0.000
       0.000  0.000  1.000
     occupation matrix ns (before diag.):
       0.500  0.000  0.000
       0.000  0.500  0.000
       0.000  0.000  0.500
     ------------------------ ATOM   96 ------------------------
     Tr[ns( 96)] =   3.00000
     eigenvalues:
       0.500  0.500  0.500
     eigenvectors (columns):
       1.000  0.000  0.000
       0.000  1.000  0.000
       0.000  0.000  1.000
     occupation matrix ns (before diag.):
       0.500  0.000  0.000
       0.000  0.500  0.000
       0.000  0.000  0.500
     ------------------------ ATOM   97 ------------------------
     Tr[ns( 97)] =   1.00000
     eigenvalues:
       0.167  0.167  0.167
     eigenvectors (columns):
       1.000  0.000  0.000
       0.000  1.000  0.000
       0.000  0.000  1.000
     occupation matrix ns (before diag.):
       0.167  0.000  0.000
       0.000  0.167  0.000
       0.000  0.000  0.167
     ------------------------ ATOM   98 ------------------------
     Tr[ns( 98)] =   1.00000
     eigenvalues:
       0.167  0.167  0.167
     eigenvectors (columns):
       1.000  0.000  0.000
       0.000  1.000  0.000
       0.000  0.000  1.000
     occupation matrix ns (before diag.):
       0.167  0.000  0.000
       0.000  0.167  0.000
       0.000  0.000  0.167
     ------------------------ ATOM   99 ------------------------
     Tr[ns( 99)] =   1.00000
     eigenvalues:
       0.167  0.167  0.167
     eigenvectors (columns):
       1.000  0.000  0.000
       0.000  1.000  0.000
       0.000  0.000  1.000
     occupation matrix ns (before diag.):
       0.167  0.000  0.000
       0.000  0.167  0.000
       0.000  0.000  0.167
     ------------------------ ATOM  100 ------------------------
     Tr[ns(100)] =   1.00000
     eigenvalues:
       0.167  0.167  0.167
     eigenvectors (columns):
       1.000  0.000  0.000
       0.000  1.000  0.000
       0.000  0.000  1.000
     occupation matrix ns (before diag.):
       0.167  0.000  0.000
       0.000  0.167  0.000
       0.000  0.000  0.167
     ------------------------ ATOM  101 ------------------------
     Tr[ns(101)] =   3.00000
     eigenvalues:
       0.500  0.500  0.500
     eigenvectors (columns):
       1.000  0.000  0.000
       0.000  1.000  0.000
       0.000  0.000  1.000
     occupation matrix ns (before diag.):
       0.500  0.000  0.000
       0.000  0.500  0.000
       0.000  0.000  0.500
     ------------------------ ATOM  102 ------------------------
     Tr[ns(102)] =   3.00000
     eigenvalues:
       0.500  0.500  0.500
     eigenvectors (columns):
       1.000  0.000  0.000
       0.000  1.000  0.000
       0.000  0.000  1.000
     occupation matrix ns (before diag.):
       0.500  0.000  0.000
       0.000  0.500  0.000
       0.000  0.000  0.500
     ------------------------ ATOM  103 ------------------------
     Tr[ns(103)] =   3.00000
     eigenvalues:
       0.500  0.500  0.500
     eigenvectors (columns):
       1.000  0.000  0.000
       0.000  1.000  0.000
       0.000  0.000  1.000
     occupation matrix ns (before diag.):
       0.500  0.000  0.000
       0.000  0.500  0.000
       0.000  0.000  0.500
     ------------------------ ATOM  104 ------------------------
     Tr[ns(104)] =   3.00000
     eigenvalues:
       0.500  0.500  0.500
     eigenvectors (columns):
       1.000  0.000  0.000
       0.000  1.000  0.000
       0.000  0.000  1.000
     occupation matrix ns (before diag.):
       0.500  0.000  0.000
       0.000  0.500  0.000
       0.000  0.000  0.500
     ------------------------ ATOM  105 ------------------------
     Tr[ns(105)] =   1.00000
     eigenvalues:
       0.167  0.167  0.167
     eigenvectors (columns):
       1.000  0.000  0.000
       0.000  1.000  0.000
       0.000  0.000  1.000
     occupation matrix ns (before diag.):
       0.167  0.000  0.000
       0.000  0.167  0.000
       0.000  0.000  0.167
     ------------------------ ATOM  106 ------------------------
     Tr[ns(106)] =   1.00000
     eigenvalues:
       0.167  0.167  0.167
     eigenvectors (columns):
       1.000  0.000  0.000
       0.000  1.000  0.000
       0.000  0.000  1.000
     occupation matrix ns (before diag.):
       0.167  0.000  0.000
       0.000  0.167  0.000
       0.000  0.000  0.167
     ------------------------ ATOM  107 ------------------------
     Tr[ns(107)] =   1.00000
     eigenvalues:
       0.167  0.167  0.167
     eigenvectors (columns):
       1.000  0.000  0.000
       0.000  1.000  0.000
       0.000  0.000  1.000
     occupation matrix ns (before diag.):
       0.167  0.000  0.000
       0.000  0.167  0.000
       0.000  0.000  0.167
     ------------------------ ATOM  108 ------------------------
     Tr[ns(108)] =   1.00000
     eigenvalues:
       0.167  0.167  0.167
     eigenvectors (columns):
       1.000  0.000  0.000
       0.000  1.000  0.000
       0.000  0.000  1.000
     occupation matrix ns (before diag.):
       0.167  0.000  0.000
       0.000  0.167  0.000
       0.000  0.000  0.167
     ------------------------ ATOM  109 ------------------------
     Tr[ns(109)] =   3.00000
     eigenvalues:
       0.500  0.500  0.500
     eigenvectors (columns):
       1.000  0.000  0.000
       0.000  1.000  0.000
       0.000  0.000  1.000
     occupation matrix ns (before diag.):
       0.500  0.000  0.000
       0.000  0.500  0.000
       0.000  0.000  0.500
     ------------------------ ATOM  110 ------------------------
     Tr[ns(110)] =   3.00000
     eigenvalues:
       0.500  0.500  0.500
     eigenvectors (columns):
       1.000  0.000  0.000
       0.000  1.000  0.000
       0.000  0.000  1.000
     occupation matrix ns (before diag.):
       0.500  0.000  0.000
       0.000  0.500  0.000
       0.000  0.000  0.500
     ------------------------ ATOM  111 ------------------------
     Tr[ns(111)] =   3.00000
     eigenvalues:
       0.500  0.500  0.500
     eigenvectors (columns):
       1.000  0.000  0.000
       0.000  1.000  0.000
       0.000  0.000  1.000
     occupation matrix ns (before diag.):
       0.500  0.000  0.000
       0.000  0.500  0.000
       0.000  0.000  0.500
     ------------------------ ATOM  112 ------------------------
     Tr[ns(112)] =   3.00000
     eigenvalues:
       0.500  0.500  0.500
     eigenvectors (columns):
       1.000  0.000  0.000
       0.000  1.000  0.000
       0.000  0.000  1.000
     occupation matrix ns (before diag.):
       0.500  0.000  0.000
       0.000  0.500  0.000
       0.000  0.000  0.500
     ------------------------ ATOM  113 ------------------------
     Tr[ns(113)] =   1.00000
     eigenvalues:
       0.167  0.167  0.167
     eigenvectors (columns):
       1.000  0.000  0.000
       0.000  1.000  0.000
       0.000  0.000  1.000
     occupation matrix ns (before diag.):
       0.167  0.000  0.000
       0.000  0.167  0.000
       0.000  0.000  0.167
     ------------------------ ATOM  114 ------------------------
     Tr[ns(114)] =   1.00000
     eigenvalues:
       0.167  0.167  0.167
     eigenvectors (columns):
       1.000  0.000  0.000
       0.000  1.000  0.000
       0.000  0.000  1.000
     occupation matrix ns (before diag.):
       0.167  0.000  0.000
       0.000  0.167  0.000
       0.000  0.000  0.167
     ------------------------ ATOM  115 ------------------------
     Tr[ns(115)] =   1.00000
     eigenvalues:
       0.167  0.167  0.167
     eigenvectors (columns):
       1.000  0.000  0.000
       0.000  1.000  0.000
       0.000  0.000  1.000
     occupation matrix ns (before diag.):
       0.167  0.000  0.000
       0.000  0.167  0.000
       0.000  0.000  0.167
     ------------------------ ATOM  116 ------------------------
     Tr[ns(116)] =   1.00000
     eigenvalues:
       0.167  0.167  0.167
     eigenvectors (columns):
       1.000  0.000  0.000
       0.000  1.000  0.000
       0.000  0.000  1.000
     occupation matrix ns (before diag.):
       0.167  0.000  0.000
       0.000  0.167  0.000
       0.000  0.000  0.167
     ------------------------ ATOM  117 ------------------------
     Tr[ns(117)] =   3.00000
     eigenvalues:
       0.500  0.500  0.500
     eigenvectors (columns):
       1.000  0.000  0.000
       0.000  1.000  0.000
       0.000  0.000  1.000
     occupation matrix ns (before diag.):
       0.500  0.000  0.000
       0.000  0.500  0.000
       0.000  0.000  0.500
     ------------------------ ATOM  118 ------------------------
     Tr[ns(118)] =   3.00000
     eigenvalues:
       0.500  0.500  0.500
     eigenvectors (columns):
       1.000  0.000  0.000
       0.000  1.000  0.000
       0.000  0.000  1.000
     occupation matrix ns (before diag.):
       0.500  0.000  0.000
       0.000  0.500  0.000
       0.000  0.000  0.500
     ------------------------ ATOM  119 ------------------------
     Tr[ns(119)] =   3.00000
     eigenvalues:
       0.500  0.500  0.500
     eigenvectors (columns):
       1.000  0.000  0.000
       0.000  1.000  0.000
       0.000  0.000  1.000
     occupation matrix ns (before diag.):
       0.500  0.000  0.000
       0.000  0.500  0.000
       0.000  0.000  0.500
     ------------------------ ATOM  120 ------------------------
     Tr[ns(120)] =   3.00000
     eigenvalues:
       0.500  0.500  0.500
     eigenvectors (columns):
       1.000  0.000  0.000
       0.000  1.000  0.000
       0.000  0.000  1.000
     occupation matrix ns (before diag.):
       0.500  0.000  0.000
       0.000  0.500  0.000
       0.000  0.000  0.500
     ------------------------ ATOM  121 ------------------------
     Tr[ns(121)] =   1.00000
     eigenvalues:
       0.167  0.167  0.167
     eigenvectors (columns):
       1.000  0.000  0.000
       0.000  1.000  0.000
       0.000  0.000  1.000
     occupation matrix ns (before diag.):
       0.167  0.000  0.000
       0.000  0.167  0.000
       0.000  0.000  0.167
     ------------------------ ATOM  122 ------------------------
     Tr[ns(122)] =   1.00000
     eigenvalues:
       0.167  0.167  0.167
     eigenvectors (columns):
       1.000  0.000  0.000
       0.000  1.000  0.000
       0.000  0.000  1.000
     occupation matrix ns (before diag.):
       0.167  0.000  0.000
       0.000  0.167  0.000
       0.000  0.000  0.167
     ------------------------ ATOM  123 ------------------------
     Tr[ns(123)] =   1.00000
     eigenvalues:
       0.167  0.167  0.167
     eigenvectors (columns):
       1.000  0.000  0.000
       0.000  1.000  0.000
       0.000  0.000  1.000
     occupation matrix ns (before diag.):
       0.167  0.000  0.000
       0.000  0.167  0.000
       0.000  0.000  0.167
     ------------------------ ATOM  124 ------------------------
     Tr[ns(124)] =   1.00000
     eigenvalues:
       0.167  0.167  0.167
     eigenvectors (columns):
       1.000  0.000  0.000
       0.000  1.000  0.000
       0.000  0.000  1.000
     occupation matrix ns (before diag.):
       0.167  0.000  0.000
       0.000  0.167  0.000
       0.000  0.000  0.167
     ------------------------ ATOM  125 ------------------------
     Tr[ns(125)] =   3.00000
     eigenvalues:
       0.500  0.500  0.500
     eigenvectors (columns):
       1.000  0.000  0.000
       0.000  1.000  0.000
       0.000  0.000  1.000
     occupation matrix ns (before diag.):
       0.500  0.000  0.000
       0.000  0.500  0.000
       0.000  0.000  0.500
     ------------------------ ATOM  126 ------------------------
     Tr[ns(126)] =   3.00000
     eigenvalues:
       0.500  0.500  0.500
     eigenvectors (columns):
       1.000  0.000  0.000
       0.000  1.000  0.000
       0.000  0.000  1.000
     occupation matrix ns (before diag.):
       0.500  0.000  0.000
       0.000  0.500  0.000
       0.000  0.000  0.500
     ------------------------ ATOM  127 ------------------------
     Tr[ns(127)] =   3.00000
     eigenvalues:
       0.500  0.500  0.500
     eigenvectors (columns):
       1.000  0.000  0.000
       0.000  1.000  0.000
       0.000  0.000  1.000
     occupation matrix ns (before diag.):
       0.500  0.000  0.000
       0.000  0.500  0.000
       0.000  0.000  0.500
     ------------------------ ATOM  128 ------------------------
     Tr[ns(128)] =   3.00000
     eigenvalues:
       0.500  0.500  0.500
     eigenvectors (columns):
       1.000  0.000  0.000
       0.000  1.000  0.000
       0.000  0.000  1.000
     occupation matrix ns (before diag.):
       0.500  0.000  0.000
       0.000  0.500  0.000
       0.000  0.000  0.500
     ------------------------ ATOM  129 ------------------------
     Tr[ns(129)] =   1.00000
     eigenvalues:
       0.167  0.167  0.167
     eigenvectors (columns):
       1.000  0.000  0.000
       0.000  1.000  0.000
       0.000  0.000  1.000
     occupation matrix ns (before diag.):
       0.167  0.000  0.000
       0.000  0.167  0.000
       0.000  0.000  0.167
     ------------------------ ATOM  130 ------------------------
     Tr[ns(130)] =   1.00000
     eigenvalues:
       0.167  0.167  0.167
     eigenvectors (columns):
       1.000  0.000  0.000
       0.000  1.000  0.000
       0.000  0.000  1.000
     occupation matrix ns (before diag.):
       0.167  0.000  0.000
       0.000  0.167  0.000
       0.000  0.000  0.167
     ------------------------ ATOM  131 ------------------------
     Tr[ns(131)] =   1.00000
     eigenvalues:
       0.167  0.167  0.167
     eigenvectors (columns):
       1.000  0.000  0.000
       0.000  1.000  0.000
       0.000  0.000  1.000
     occupation matrix ns (before diag.):
       0.167  0.000  0.000
       0.000  0.167  0.000
       0.000  0.000  0.167
     ------------------------ ATOM  132 ------------------------
     Tr[ns(132)] =   1.00000
     eigenvalues:
       0.167  0.167  0.167
     eigenvectors (columns):
       1.000  0.000  0.000
       0.000  1.000  0.000
       0.000  0.000  1.000
     occupation matrix ns (before diag.):
       0.167  0.000  0.000
       0.000  0.167  0.000
       0.000  0.000  0.167
     ------------------------ ATOM  133 ------------------------
     Tr[ns(133)] =   3.00000
     eigenvalues:
       0.500  0.500  0.500
     eigenvectors (columns):
       1.000  0.000  0.000
       0.000  1.000  0.000
       0.000  0.000  1.000
     occupation matrix ns (before diag.):
       0.500  0.000  0.000
       0.000  0.500  0.000
       0.000  0.000  0.500
     ------------------------ ATOM  134 ------------------------
     Tr[ns(134)] =   3.00000
     eigenvalues:
       0.500  0.500  0.500
     eigenvectors (columns):
       1.000  0.000  0.000
       0.000  1.000  0.000
       0.000  0.000  1.000
     occupation matrix ns (before diag.):
       0.500  0.000  0.000
       0.000  0.500  0.000
       0.000  0.000  0.500
     ------------------------ ATOM  135 ------------------------
     Tr[ns(135)] =   3.00000
     eigenvalues:
       0.500  0.500  0.500
     eigenvectors (columns):
       1.000  0.000  0.000
       0.000  1.000  0.000
       0.000  0.000  1.000
     occupation matrix ns (before diag.):
       0.500  0.000  0.000
       0.000  0.500  0.000
       0.000  0.000  0.500
     ------------------------ ATOM  136 ------------------------
     Tr[ns(136)] =   3.00000
     eigenvalues:
       0.500  0.500  0.500
     eigenvectors (columns):
       1.000  0.000  0.000
       0.000  1.000  0.000
       0.000  0.000  1.000
     occupation matrix ns (before diag.):
       0.500  0.000  0.000
       0.000  0.500  0.000
       0.000  0.000  0.500
     ------------------------ ATOM  137 ------------------------
     Tr[ns(137)] =   1.00000
     eigenvalues:
       0.167  0.167  0.167
     eigenvectors (columns):
       1.000  0.000  0.000
       0.000  1.000  0.000
       0.000  0.000  1.000
     occupation matrix ns (before diag.):
       0.167  0.000  0.000
       0.000  0.167  0.000
       0.000  0.000  0.167
     ------------------------ ATOM  138 ------------------------
     Tr[ns(138)] =   1.00000
     eigenvalues:
       0.167  0.167  0.167
     eigenvectors (columns):
       1.000  0.000  0.000
       0.000  1.000  0.000
       0.000  0.000  1.000
     occupation matrix ns (before diag.):
       0.167  0.000  0.000
       0.000  0.167  0.000
       0.000  0.000  0.167
     ------------------------ ATOM  139 ------------------------
     Tr[ns(139)] =   1.00000
     eigenvalues:
       0.167  0.167  0.167
     eigenvectors (columns):
       1.000  0.000  0.000
       0.000  1.000  0.000
       0.000  0.000  1.000
     occupation matrix ns (before diag.):
       0.167  0.000  0.000
       0.000  0.167  0.000
       0.000  0.000  0.167
     ------------------------ ATOM  140 ------------------------
     Tr[ns(140)] =   1.00000
     eigenvalues:
       0.167  0.167  0.167
     eigenvectors (columns):
       1.000  0.000  0.000
       0.000  1.000  0.000
       0.000  0.000  1.000
     occupation matrix ns (before diag.):
       0.167  0.000  0.000
       0.000  0.167  0.000
       0.000  0.000  0.167
     ------------------------ ATOM  141 ------------------------
     Tr[ns(141)] =   3.00000
     eigenvalues:
       0.500  0.500  0.500
     eigenvectors (columns):
       1.000  0.000  0.000
       0.000  1.000  0.000
       0.000  0.000  1.000
     occupation matrix ns (before diag.):
       0.500  0.000  0.000
       0.000  0.500  0.000
       0.000  0.000  0.500
     ------------------------ ATOM  142 ------------------------
     Tr[ns(142)] =   3.00000
     eigenvalues:
       0.500  0.500  0.500
     eigenvectors (columns):
       1.000  0.000  0.000
       0.000  1.000  0.000
       0.000  0.000  1.000
     occupation matrix ns (before diag.):
       0.500  0.000  0.000
       0.000  0.500  0.000
       0.000  0.000  0.500
     ------------------------ ATOM  143 ------------------------
     Tr[ns(143)] =   3.00000
     eigenvalues:
       0.500  0.500  0.500
     eigenvectors (columns):
       1.000  0.000  0.000
       0.000  1.000  0.000
       0.000  0.000  1.000
     occupation matrix ns (before diag.):
       0.500  0.000  0.000
       0.000  0.500  0.000
       0.000  0.000  0.500
     ------------------------ ATOM  144 ------------------------
     Tr[ns(144)] =   3.00000
     eigenvalues:
       0.500  0.500  0.500
     eigenvectors (columns):
       1.000  0.000  0.000
       0.000  1.000  0.000
       0.000  0.000  1.000
     occupation matrix ns (before diag.):
       0.500  0.000  0.000
       0.000  0.500  0.000
       0.000  0.000  0.500
     ------------------------ ATOM  145 ------------------------
     Tr[ns(145)] =   1.00000
     eigenvalues:
       0.167  0.167  0.167
     eigenvectors (columns):
       1.000  0.000  0.000
       0.000  1.000  0.000
       0.000  0.000  1.000
     occupation matrix ns (before diag.):
       0.167  0.000  0.000
       0.000  0.167  0.000
       0.000  0.000  0.167
     ------------------------ ATOM  146 ------------------------
     Tr[ns(146)] =   1.00000
     eigenvalues:
       0.167  0.167  0.167
     eigenvectors (columns):
       1.000  0.000  0.000
       0.000  1.000  0.000
       0.000  0.000  1.000
     occupation matrix ns (before diag.):
       0.167  0.000  0.000
       0.000  0.167  0.000
       0.000  0.000  0.167
     ------------------------ ATOM  147 ------------------------
     Tr[ns(147)] =   1.00000
     eigenvalues:
       0.167  0.167  0.167
     eigenvectors (columns):
       1.000  0.000  0.000
       0.000  1.000  0.000
       0.000  0.000  1.000
     occupation matrix ns (before diag.):
       0.167  0.000  0.000
       0.000  0.167  0.000
       0.000  0.000  0.167
     ------------------------ ATOM  148 ------------------------
     Tr[ns(148)] =   1.00000
     eigenvalues:
       0.167  0.167  0.167
     eigenvectors (columns):
       1.000  0.000  0.000
       0.000  1.000  0.000
       0.000  0.000  1.000
     occupation matrix ns (before diag.):
       0.167  0.000  0.000
       0.000  0.167  0.000
       0.000  0.000  0.167
     ------------------------ ATOM  149 ------------------------
     Tr[ns(149)] =   3.00000
     eigenvalues:
       0.500  0.500  0.500
     eigenvectors (columns):
       1.000  0.000  0.000
       0.000  1.000  0.000
       0.000  0.000  1.000
     occupation matrix ns (before diag.):
       0.500  0.000  0.000
       0.000  0.500  0.000
       0.000  0.000  0.500
     ------------------------ ATOM  150 ------------------------
     Tr[ns(150)] =   3.00000
     eigenvalues:
       0.500  0.500  0.500
     eigenvectors (columns):
       1.000  0.000  0.000
       0.000  1.000  0.000
       0.000  0.000  1.000
     occupation matrix ns (before diag.):
       0.500  0.000  0.000
       0.000  0.500  0.000
       0.000  0.000  0.500
     ------------------------ ATOM  151 ------------------------
     Tr[ns(151)] =   3.00000
     eigenvalues:
       0.500  0.500  0.500
     eigenvectors (columns):
       1.000  0.000  0.000
       0.000  1.000  0.000
       0.000  0.000  1.000
     occupation matrix ns (before diag.):
       0.500  0.000  0.000
       0.000  0.500  0.000
       0.000  0.000  0.500
     ------------------------ ATOM  152 ------------------------
[...]
   -20.4125 -20.4122 -20.4120 -20.4119 -20.4118 -20.4117 -20.4115 -20.4113
   -20.4109 -20.4104 -20.4103 -20.4100 -20.4099 -20.4098 -20.4096 -20.4093
   -20.4092 -20.4092 -20.4091 -20.4091 -20.4088 -20.4087 -20.4082 -20.4076
   -20.4068 -20.4066 -20.4065 -20.4064 -20.4063 -20.4061 -20.4061 -20.4058
   -20.4057 -20.4055 -20.4051 -20.4048 -20.4046 -20.4046 -20.4040 -20.4038
   -20.4038 -20.4037 -20.4036 -20.4031 -20.4030 -20.4029 -20.4029 -20.4027
   -20.4026 -20.4025 -20.4024 -20.4023 -20.4022 -20.4021 -20.4020 -20.4020
   -20.4019 -20.4015 -20.4015 -20.4012 -20.4012 -20.4011 -20.4010 -20.4003
   -20.4002 -20.3993 -20.3992 -20.3991 -20.3991 -20.3987 -20.3984 -20.3983
   -20.3979 -20.3977 -20.3975 -20.3973 -20.3971 -20.3971 -20.3971 -20.3970
   -20.3967 -20.3967 -20.3965 -20.3962 -20.3962 -20.3960 -20.3959 -20.3958
   -20.3957 -20.3955 -20.3955 -20.3954 -20.3952 -20.3952 -20.3951 -20.3951
   -20.3950 -20.3949 -20.3948 -20.3947 -20.3945 -20.3942 -20.3939 -20.3939
   -20.3933 -20.3932 -20.3932 -20.3932 -20.3932 -20.3928 -20.3925 -20.3924
   -20.3924 -20.3920 -20.3919 -20.3918 -20.3917 -20.3915 -20.3911 -20.3905
   -20.3904 -20.3897 -20.3897 -20.3895 -20.3895 -20.3894 -20.3894 -20.3891
   -20.3889 -20.3888 -20.3887 -20.3883 -20.3881 -20.3881 -20.3881 -20.3877
   -20.3872 -20.3864 -20.3864 -20.3860 -20.3856 -20.3856 -20.3854 -20.3853
   -20.3849 -20.3848 -20.3845 -20.3844 -20.3840 -20.3839 -20.3837 -20.3834
   -20.3833 -20.3827 -20.3825 -20.3818 -20.3813 -20.3808 -20.3806 -20.3801
   -20.3798 -20.3795 -20.3793 -20.3787 -20.3784 -20.3781 -20.3780 -20.3779
   -20.3777 -20.3773 -20.3768 -20.3763 -20.3762 -20.3759 -20.3757 -20.3752
   -20.3749 -20.3744 -20.3743 -20.3737 -20.3732 -20.3732 -20.3730 -20.3726
   -20.3726 -20.3722 -20.3709 -20.3704 -20.3698 -20.3694 -20.3688 -20.3679
   -20.3664 -20.3657 -20.3650 -20.3639 -20.3627 -20.3618 -20.3597 -20.3595
   -20.3591 -20.3568 -20.3463 -20.3442  -7.3667  -7.3659  -7.3643  -7.3631
    -7.3603  -7.3600  -7.3588  -7.3583  -7.3570  -7.3552  -7.3548  -7.3489
    -7.3476  -7.3458  -7.3408  -7.3394  -7.3386  -7.3365  -7.3354  -7.3341
    -7.3329  -7.3326  -7.3324  -7.3317  -7.3308  -7.3301  -7.3296  -7.3289
    -7.3286  -7.3269  -7.3261  -7.3255  -7.3245  -7.3243  -7.3229  -7.3207
    -7.3203  -7.3196  -7.3184  -7.3171  -7.3147  -7.3137  -7.3106  -7.3092
    -7.3066  -7.3050  -7.3036  -7.3023  -7.3007  -7.2994  -7.2986  -7.2976
    -7.2974  -7.2935  -7.2933  -7.2932  -7.2922  -7.2917  -7.2905  -7.2897
    -7.2884  -7.2878  -7.2874  -7.2857  -7.2835  -7.2824  -7.2813  -7.2806
    -7.2802  -7.2786  -7.2781  -7.2777  -7.2772  -7.2758  -7.2749  -7.2746
    -7.2731  -7.2725  -7.2722  -7.2719  -7.2709  -7.2703  -7.2698  -7.2685
    -7.2677  -7.2673  -7.2669  -7.2654  -7.2654  -7.2651  -7.2647  -7.2643
    -7.2641  -7.2636  -7.2631  -7.2629  -7.2622  -7.2617  -7.2614  -7.2605
    -7.2599  -7.2599  -7.2593  -7.2585  -7.2584  -7.2580  -7.2574  -7.2571
    -7.2566  -7.2563  -7.2559  -7.2551  -7.2545  -7.2541  -7.2539  -7.2535
    -7.2527  -7.2525  -7.2523  -7.2517  -7.2512  -7.2509  -7.2505  -7.2504
    -7.2498  -7.2495  -7.2488  -7.2485  -7.2481  -7.2476  -7.2465  -7.2461
    -7.2460  -7.2455  -7.2449  -7.2445  -7.2439  -7.2436  -7.2432  -7.2424
    -7.2418  -7.2418  -7.2415  -7.2409  -7.2405  -7.2403  -7.2389  -7.2389
    -7.2383  -7.2381  -7.2369  -7.2368  -7.2360  -7.2359  -7.2355  -7.2343
    -7.2341  -7.2337  -7.2332  -7.2327  -7.2324  -7.2320  -7.2311  -7.2310
    -7.2305  -7.2302  -7.2298  -7.2293  -7.2292  -7.2286  -7.2280  -7.2274
    -7.2272  -7.2267  -7.2265  -7.2259  -7.2255  -7.2254  -7.2246  -7.2243
    -7.2237  -7.2233  -7.2231  -7.2228  -7.2223  -7.2220  -7.2214  -7.2209
    -7.2206  -7.2203  -7.2200  -7.2194  -7.2188  -7.2183  -7.2177  -7.2175
    -7.2173  -7.2168  -7.2165  -7.2160  -7.2156  -7.2151  -7.2149  -7.2145
    -7.2137  -7.2135  -7.2131  -7.2128  -7.2121  -7.2116  -7.2115  -7.2113
    -7.2106  -7.2102  -7.2100  -7.2097  -7.2095  -7.2092  -7.2086  -7.2084
    -7.2081  -7.2081  -7.2078  -7.2076  -7.2074  -7.2070  -7.2067  -7.2062
    -7.2059  -7.2057  -7.2047  -7.2046  -7.2040  -7.2039  -7.2037  -7.2032
    -7.2032  -7.2025  -7.2023  -7.2020  -7.2016  -7.2012  -7.2010  -7.2008
    -7.2002  -7.1997  -7.1992  -7.1989  -7.1988  -7.1985  -7.1981  -7.1978
    -7.1974  -7.1970  -7.1965  -7.1961  -7.1959  -7.1955  -7.1952  -7.1950
    -7.1948  -7.1942  -7.1938  -7.1935  -7.1933  -7.1927  -7.1922  -7.1920
    -7.1918  -7.1917  -7.1911  -7.1909  -7.1903  -7.1900  -7.1895  -7.1894
    -7.1888  -7.1883  -7.1877  -7.1875  -7.1872  -7.1866  -7.1862  -7.1859
    -7.1857  -7.1850  -7.1850  -7.1844  -7.1841  -7.1835  -7.1835  -7.1831
    -7.1824  -7.1823  -7.1818  -7.1815  -7.1813  -7.1810  -7.1805  -7.1802
    -7.1797  -7.1794  -7.1789  -7.1788  -7.1784  -7.1782  -7.1778  -7.1774
    -7.1770  -7.1766  -7.1762  -7.1760  -7.1757  -7.1755  -7.1754  -7.1750
    -7.1747  -7.1743  -7.1739  -7.1737  -7.1734  -7.1729  -7.1722  -7.1721
    -7.1718  -7.1713  -7.1711  -7.1710  -7.1709  -7.1708  -7.1700  -7.1696
    -7.1694  -7.1687  -7.1687  -7.1682  -7.1679  -7.1674  -7.1674  -7.1670
    -7.1663  -7.1658  -7.1656  -7.1652  -7.1651  -7.1644  -7.1642  -7.1640
    -7.1635  -7.1630  -7.1626  -7.1624  -7.1619  -7.1619  -7.1616  -7.1614
    -7.1606  -7.1602  -7.1601  -7.1598  -7.1598  -7.1594  -7.1592  -7.1589
    -7.1586  -7.1580  -7.1576  -7.1575  -7.1574  -7.1571  -7.1563  -7.1560
    -7.1553  -7.1549  -7.1546  -7.1544  -7.1542  -7.1537  -7.1532  -7.1528
    -7.1523  -7.1520  -7.1515  -7.1511  -7.1503  -7.1500  -7.1494  -7.1493
    -7.1493  -7.1486  -7.1481  -7.1480  -7.1476  -7.1474  -7.1472  -7.1468
    -7.1467  -7.1465  -7.1461  -7.1458  -7.1456  -7.1452  -7.1446  -7.1442
    -7.1437  -7.1434  -7.1433  -7.1429  -7.1425  -7.1424  -7.1421  -7.1418
    -7.1411  -7.1410  -7.1407  -7.1407  -7.1403  -7.1400  -7.1394  -7.1393
    -7.1391  -7.1386  -7.1384  -7.1384  -7.1377  -7.1371  -7.1367  -7.1366
    -7.1364  -7.1359  -7.1356  -7.1351  -7.1350  -7.1345  -7.1341  -7.1338
    -7.1332  -7.1332  -7.1330  -7.1326  -7.1324  -7.1318  -7.1315  -7.1308
    -7.1304  -7.1301  -7.1297  -7.1287  -7.1287  -7.1281  -7.1276  -7.1272
    -7.1266  -7.1257  -7.1250  -7.1245  -7.1242  -7.1239  -7.1238  -7.1230
    -7.1224  -7.1219  -7.1213  -7.1203  -7.1198  -7.1196  -7.1192  -7.1188
    -7.1174  -7.1170  -7.1167  -7.1163  -7.1160  -7.1158  -7.1153  -7.1151
    -7.1138  -7.1136  -7.1128  -7.1122  -7.1114  -7.1110  -7.1105  -7.1101
    -7.1089  -7.1083  -7.1081  -7.1081  -7.1078  -7.1069  -7.1060  -7.1059
    -7.1051  -7.1045  -7.1043  -7.1042  -7.1032  -7.1029  -7.1022  -7.1010
    -7.1004  -7.0996  -7.0987  -7.0980  -7.0975  -7.0959  -7.0956  -7.0947
    -7.0946  -7.0936  -7.0927  -7.0926  -7.0924  -7.0920  -7.0908  -7.0903
    -7.0898  -7.0890  -7.0881  -7.0877  -7.0873  -7.0870  -7.0867  -7.0864
    -7.0859  -7.0850  -7.0835  -7.0825  -7.0817  -7.0807  -7.0797  -7.0793
    -7.0790  -7.0787  -7.0782  -7.0775  -7.0770  -7.0762  -7.0709  -7.0686
    -3.5718  -3.5210  -3.4943  -3.4632  -3.3654  -3.3170  -3.2878  -3.2524
    -3.2109  -3.1975  -3.1733  -3.1320  -3.1211  -3.0462  -3.0277  -2.9943
    -2.9646  -2.9577  -2.9258  -2.8995  -2.8593  -2.8416  -2.8220  -2.7981
    -2.7820  -2.7560  -2.7193  -2.7152  -2.7007  -2.6663  -2.6499  -2.6417
    -2.6259  -2.6118  -2.5957  -2.5645  -2.5531  -2.5358  -2.4852  -2.4733
    -2.4521  -2.4291  -2.4193  -2.3940  -2.3848  -2.3719  -2.3588  -2.3304
    -2.2914  -2.2766  -2.2639  -2.2463  -2.2154  -2.2140  -2.1646  -2.0990
    -1.9628  -1.9422  -1.8924  -1.8701  -1.8241  -1.8057  -1.7711  -1.7509
    -1.7334  -1.7240  -1.7004  -1.6358  -1.6233  -1.6000  -1.5866  -1.5522
    -1.5376  -1.5153  -1.4963  -1.4759  -1.4459  -1.4212  -1.4088  -1.3721
    -1.3367  -1.3185  -1.3081  -1.2791  -1.2653  -1.2464  -1.2193  -1.1843
    -1.1633  -1.1539  -1.1426  -1.1077  -1.0867  -1.0836  -1.0660  -1.0555
    -1.0477  -1.0242  -0.9914  -0.9632  -0.9473  -0.9342  -0.9009  -0.8986
    -0.8685  -0.8411  -0.8185  -0.7342   0.5133   0.5380   0.5557   0.5624
     0.7659   0.7677   0.7764   0.7808   0.7829   0.7937   0.8010   0.8118
     0.8141   0.8161   0.8325   0.8408   0.8459   0.8496   0.8552   0.8611
     0.8656   0.8699   0.8712   0.8787   0.8873   0.8890   0.9010   0.9025
     0.9045   0.9077   0.9212   0.9238   0.9344   0.9420   0.9517   0.9552
     0.9611   0.9645   0.9737   0.9788   0.9828   0.9910   0.9953   1.0099
     1.0119   1.0186   1.0277   1.0405   1.0468   1.0550   1.0632   1.0721
     1.0778   1.0846   1.0902   1.1007   1.1063   1.1097   1.1290   1.1490
     1.6089   1.6430   1.6618   1.6647   1.6878   1.7249   1.7425   1.7557
     1.7668   1.8075   1.8207   1.8382   1.8965   1.9046   1.9309   1.9377
     1.9487   1.9652   1.9782   2.0025   2.0042   2.0236   2.0347   2.0532
     2.0774   2.0867   2.0947   2.1143   2.8454   2.8885   2.8928   2.9241
     2.9318   2.9815   3.0092   3.0565   3.4132   3.4326   3.4513   3.4593
     3.4682   3.4707   3.4834   3.4891   3.5002   3.5159   3.5192   3.5327
     3.5591   3.5660   3.5871   3.5911   3.6742   3.6785   3.6844   3.6883
     3.6943   3.7012   3.7060   3.7193   3.7257   3.7410   3.7474   3.7534
     3.7558   3.7671   3.7864   3.7892   3.8170   3.8428   3.8573   3.8648
     3.9130   3.9309   3.9423   3.9481   3.9576   3.9597   3.9702   3.9734
     3.9760   3.9802   3.9909   3.9976   4.0139   4.0181   4.0231   4.0296
     4.0386   4.0552   4.0740   4.0885   4.3066   4.3470   4.3500   4.3563
     4.3762   4.3914   4.4134   4.4250   4.4737   4.4843   4.4907   4.4942
     4.5067   4.5153   4.5213   4.5237   4.5384   4.5455   4.5503   4.5618
     4.5625   4.5757   4.5832   4.5937   4.6095   4.6136   4.6255   4.6379
     4.6482   4.6527   4.6646   4.6759   4.6793   4.6944   4.7202   4.7284
     4.7472   4.7846   4.7890   4.7990   4.8166   4.8294   4.8365   4.8578
     4.8620   4.8655   4.8741   4.8959   4.9020   4.9043   4.9210   4.9246
     4.9373   4.9448   4.9559   4.9610   4.9678   4.9726   4.9879   5.0029
     5.0142   5.0254   5.0344   5.0512   5.0587   5.0613   5.0761   5.0803
     5.0882   5.1041   5.1129   5.1294   5.1483   5.1571   5.1613   5.1701
     5.1739   5.1910   5.1995   5.2044   5.2095   5.2342   5.2358   5.2419
     5.2567   5.2664   5.2861   5.2994   5.3181   5.3357   5.3454   5.3494
     5.3655   5.3810   5.4017   5.4077   5.4218   5.4284   5.4388   5.4594
     5.4732   5.4844   5.4875   5.4924   5.5106   5.5161   5.5315   5.5412
     5.5612   5.5816   5.5919   5.6141   5.6555   5.6678   5.6992   5.7185
     5.7251   5.7468   5.7602   5.7730   5.8226   5.8304   5.8505   5.8604
     5.8775   5.8835   5.8960   5.9104   5.9273   5.9324   5.9415   5.9506
     5.9558   5.9689   5.9823   5.9898   6.0030   6.0117   6.0260   6.0464
     6.0616   6.0636   6.0873   6.1073   6.1160   6.1206   6.1420   6.1526
     6.1910   6.1989   6.2072   6.2338   6.2511   6.2708   6.2873   6.3070
     6.3137   6.3360   6.3416   6.3495   6.3593   6.3734   6.3903   6.4172
     6.4803   6.5121   6.5348   6.5653   6.8921   6.9166   6.9752   7.0201
     8.4448   8.4719   8.5177   8.5596   8.6160   8.6237   8.6433   8.6596
     8.6746   8.7214   8.7531   8.7808   8.9015   8.9307   8.9460   8.9706
     9.0092   9.0167   9.0470   9.0660   9.1784   9.1926   9.2126   9.2398
     9.2463   9.2558   9.2730   9.2791   9.3023   9.3220   9.3283   9.3451
     9.3475   9.3557   9.3710   9.3790   9.3870   9.3971   9.4012   9.4081
     9.4160   9.4225   9.4316   9.4446   9.4509   9.4605   9.4726   9.4796
     9.4879   9.4971   9.5098   9.5223   9.5434   9.5556   9.5672   9.5762
     9.6174   9.6344   9.6407   9.6522   9.6660   9.6674   9.6736   9.6779
     9.6915   9.7033   9.7130   9.7233   9.7301   9.7379   9.7422   9.7515
     9.7540   9.7624   9.7668   9.7753   9.7827   9.7858   9.7916   9.7994
     9.8107   9.8128   9.8259   9.8313   9.8354   9.8458   9.8577   9.8615
     9.8660   9.8742   9.8861   9.8886   9.8992   9.9064   9.9164   9.9229
     9.9365   9.9376   9.9488   9.9571   9.9634   9.9760   9.9904  10.0016
    10.0163  10.0215  10.0256  10.0403  10.3090  10.3199  10.3376  10.3598
    10.3707  10.3898  10.3944  10.3996  10.4071  10.4324  10.4356  10.4625
    10.5685  10.6017  10.6062  10.6220  10.6297  10.6514  10.6614  10.6764
    10.6913  10.7065  10.7203  10.7325  10.7393  10.7741  10.7903  10.8368
    10.9235  10.9504  10.9676  10.9766  11.0003  11.0197  11.0272  11.0495
    11.0681  11.0782  11.0854  11.1181  11.1665  11.1824  11.1857  11.1904
    11.2439  11.2606  11.2621  11.2790  11.2809  11.2978  11.3050  11.3134
    11.3262  11.3290  11.3364  11.3457  11.3621  11.3647  11.3725  11.3838
    11.4008  11.4009  11.4144  11.4214  11.4317  11.4448  11.4544  11.4614
    11.4684  11.4823  11.4870  11.4944  11.5009  11.5088  11.5225  11.5336
    11.5383  11.5460  11.5511  11.5651  11.5746  11.5821  11.5964  11.5986
    11.6044  11.6086  11.6101  11.6272  11.6364  11.6440  11.6542  11.6613
    11.6628  11.6715  11.6814  11.6930  11.7003  11.7143  11.7259  11.7519
    11.7584  11.7654  11.7922  11.8192  11.8967  11.9055  11.9239  11.9293
    11.9313  11.9451  11.9487  11.9512  11.9591  11.9619  11.9743  11.9816
    11.9929  12.0038  12.0121  12.0231  12.0537  12.0589  12.0704  12.0926
    12.0956  12.1119  12.1319  12.1332  12.1494  12.1583  12.1637  12.1699
    12.1766  12.1853  12.1901  12.2033  12.2313  12.2348  12.2463  12.2734
    12.2872  12.2967  12.3056  12.3243  12.3424  12.3435  12.3460  12.3550
    12.3725  12.3925  12.4051  12.4099  12.4167  12.4275  12.4342  12.4415
    12.4502  12.4535  12.4690  12.4879  12.4980  12.4988  12.5030  12.5151
    12.5240  12.5505  12.5530  12.5658  12.5842  12.6018  12.6062  12.6196
    12.6274  12.6499  12.6548  12.6813  12.6890  12.6992  12.7113  12.7291
    12.7520  12.7656  12.7783  12.7871  12.7932  12.8013  12.8124  12.8151
    12.8325  12.8405  12.8476  12.8508  12.8611  12.8668  12.8750  12.8778
    12.8837  12.8899  12.9028  12.9179  12.9202  12.9240  12.9284  12.9379
    12.9422  12.9506  12.9598  12.9715  12.9769  12.9852  12.9946  13.0066
    13.0104  13.0214  13.0246  13.0358  13.0398  13.0508  13.0611  13.0636
    13.0682  13.0836  13.0857  13.0987  13.1014  13.1045  13.1110  13.1255
    13.1413  13.1508  13.1631  13.1691  13.1776  13.1971  13.1986  13.2103
    13.2436  13.2622  13.2831  13.2939  13.3014  13.3147  13.3374  13.3668
    13.6802  13.6878  13.7092  13.7142  13.7289  13.7419  13.7574  13.7597
    13.7723  13.7840  13.7951  13.8103  13.8249  13.8374  13.8654  13.8706
    13.8921  13.8937  13.9146  13.9287  13.9431  13.9691  13.9807  13.9853
    14.0011  14.0213  14.0250  14.0347  14.0470  14.0672  14.0772  14.0926
    14.1724  14.1822  14.2173  14.2181  14.2315  14.2467  14.2558  14.2666
    14.2731  14.2825  14.2895  14.3014  14.3156  14.3318  14.3360  14.3567
    14.3831  14.3909  14.3948  14.4049  14.4219  14.4287  14.4435  14.4608
    14.4701  14.4734  14.5057  14.5115  14.5429  14.5525  14.5590  14.5762
    14.6259  14.6394  14.6408  14.6484  14.6787  14.7045  14.7123  14.7234
    14.7321  14.7381  14.7582  14.7695  14.7777  14.7927  14.8034  14.8099
    14.8812  14.9145  14.9302  14.9407  14.9605  14.9692  15.0063  15.0710
    15.0787  15.0817  15.0872  15.0952  15.1186  15.1370  15.1436  15.1738
    15.1750  15.1924  15.1944  15.2128  15.2161  15.2244  15.2314  15.2366
    15.2445  15.2680  15.2743  15.2877  15.2968  15.3036  15.3058  15.3165
    15.3233  15.3336  15.3403  15.3477  15.3499  15.3561  15.3679  15.3739
    15.3848  15.3904  15.4039  15.4108  15.4142  15.4214  15.4257  15.4327
    15.4471  15.4517  15.4583  15.4681  15.4694  15.4796  15.4907  15.4987
    15.5044  15.5300  15.5403  15.5558  15.5640  15.5812  15.6038  15.6084
    15.6102  15.6206  15.6319  15.6438  15.6603  15.6767  15.6836  15.6857
    15.7092  15.7160  15.7212  15.7392  15.7516  15.7539  15.7677  15.7732
    15.7800  15.7831  15.7943  15.7979  15.8031  15.8229  15.8263  15.8312
    15.8394  15.8485  15.8506  15.8562  15.8659  15.8729  15.8817  15.8941
    15.9036  15.9102  15.9188  15.9408  15.9462  15.9566  15.9629  15.9782
    15.9873  16.0066  16.0098  16.0436  16.0829  16.0958  16.1099  16.1237
    16.1332  16.1383  16.1466  16.1514  16.1518  16.1669  16.1678  16.1757
    16.1829  16.1899  16.1926  16.2175  16.2203  16.2268  16.2303  16.2385
    16.2488  16.2521  16.2581  16.2644  16.2744  16.2880  16.2973  16.3010
    16.3025  16.3166  16.3285  16.3433  16.3704  16.3936  16.4126  16.4334
    16.4685  16.4827  16.5011  16.5293  16.5396  16.5707  16.5903  16.5965
    16.6236  16.6347  16.6370  16.6401  16.6573  16.6693  16.6772  16.6911
    16.6929  16.7036  16.7105  16.7169  16.7225  16.7298  16.7383  16.7418
    16.7434  16.7538  16.7541  16.7608  16.7693  16.7762  16.7823  16.7991
    17.0026  17.0216  17.0275  17.0348  17.0716  17.0859  17.0952  17.1195
    17.1399  17.1661  17.1845  17.2016  17.2204  17.2318  17.2429  17.2513
    17.2574  17.2701  17.2957  17.3102  17.3244  17.3266  17.3449  17.3558
    17.3642  17.3741  17.3778  17.3842  17.3929  17.3983  17.4231  17.4257
    17.4311  17.4339  17.4405  17.4438  17.4616  17.4742  17.4780  17.4850

     highest occupied, lowest unoccupied level (ev):     7.0629    7.2377

!    total energy              =  -35631.66835181 Ry
     estimated scf accuracy    <       0.00000857 Ry

     The total energy is the sum of the following terms:
     one-electron contribution =  -17772.53600270 Ry
     hartree contribution      =   10626.46457808 Ry
     xc contribution           =   -9354.63733102 Ry
     ewald contribution        =  -19133.18773826 Ry
     Hubbard energy            =       2.22814209 Ry

     convergence has been achieved in  12 iterations

     Writing all to output data dir ./tmp_In1.0Ga0.0As0.5Sb0.5_cube_3x3x3.6/In1.0Ga0.0As0.5Sb0.5_cube_3x3x3.6.save/ :
     XML data file, charge density, pseudopotentials, collected wavefunctions

     init_run     :    355.21s CPU    359.69s WALL (       1 calls)
     electrons    :  11466.78s CPU  11494.56s WALL (       1 calls)

     Called by init_run:
     wfcinit      :    344.28s CPU    348.23s WALL (       1 calls)
     potinit      :      2.27s CPU      2.35s WALL (       1 calls)
     hinit0       :      0.74s CPU      0.77s WALL (       1 calls)

     Called by electrons:
     c_bands      :  10895.13s CPU  10920.94s WALL (      13 calls)
     sum_band     :    564.63s CPU    565.65s WALL (      13 calls)
     v_of_rho     :      5.03s CPU      5.27s WALL (      13 calls)
     mix_rho      :      1.09s CPU      1.10s WALL (      13 calls)

     Called by c_bands:
     init_us_2    :     40.07s CPU     40.69s WALL (      28 calls)
     cegterg      :  10297.88s CPU  10322.15s WALL (      13 calls)

     Called by *egterg:
     cdiaghg      :    817.29s CPU    818.29s WALL (     102 calls)
     h_psi        :   6541.95s CPU   6555.38s WALL (     104 calls)
     g_psi        :      5.06s CPU      5.06s WALL (      90 calls)

     Called by h_psi:
     h_psi:calbec :    943.30s CPU    943.40s WALL (     104 calls)
     vloc_psi     :   1531.43s CPU   1534.47s WALL (     104 calls)
     add_vuspsi   :    928.79s CPU    931.89s WALL (     104 calls)
     vhpsi        :   3129.46s CPU   3129.70s WALL (     104 calls)

     General routines
     calbec       :   1196.92s CPU   1197.05s WALL (     222 calls)
     fft          :      3.16s CPU      3.39s WALL (     131 calls)
     ffts         :      0.26s CPU      0.27s WALL (      13 calls)
     fftw         :   1692.70s CPU   1695.88s WALL (  163472 calls)

     Parallel routines

     Hubbard U routines
     new_ns       :     65.97s CPU     65.98s WALL (      13 calls)
     vhpsi        :   3129.46s CPU   3129.70s WALL (     104 calls)

     PWSCF        :      3h17m CPU      3h20m WALL


   This run was terminated on:  19:19:44  30Jan2026            

=------------------------------------------------------------------------------=
   JOB DONE.
=------------------------------------------------------------------------------=
