
     Program PWSCF v.7.3.1 starts on 16Jun2025 at 20: 1:13 

     This program is part of the open-source Quantum ESPRESSO suite
     for quantum simulation of materials; please cite
         "P. Giannozzi et al., J. Phys.:Condens. Matter 21 395502 (2009);
         "P. Giannozzi et al., J. Phys.:Condens. Matter 29 465901 (2017);
         "P. Giannozzi et al., J. Chem. Phys. 152 154105 (2020);
          URL http://www.quantum-espresso.org", 
     in publications or presentations arising from this work. More details at
     http://www.quantum-espresso.org/quote

     Parallel version (MPI), running on   640 processors

     MPI processes distributed on     5 nodes
     480611 MiB available memory on the printing compute node when the environment starts

     Reading input from In0.0Ga1.0As0.75Sb0.25_cube_3x3x3.7.scf.in
Warning: card &CELL ignored
Warning: card   CELL_DOFREE = 'ALL', ignored
Warning: card / ignored

     Current dimensions of program PWSCF are:
     Max number of different atomic species (ntypx) = 10
     Max number of k-points (npk) =  40000
     Max angular momentum in pseudopotentials (lmaxx) =  4

     K-points division:     npool     =       8
     R & G space division:  proc/nbgrp/npool/nimage =      80
     Subspace diagonalization in iterative solution of the eigenvalue problem:
     one sub-group per band group will be used
     custom distributed-memory algorithm (size of sub-group:  8*  8 procs)


     Parallelization info
     --------------------
     sticks:   dense  smooth     PW     G-vecs:    dense   smooth      PW
     Min         515     515    132                78745    78745   10296
     Max         516     516    133                78750    78750   10303
     Sum       41245   41245  10629              6299761  6299761  823993

     Using Slab Decomposition



     bravais-lattice index     =            1
     lattice parameter (alat)  =      32.8573  a.u.
     unit-cell volume          =   35472.6869 (a.u.)^3
     number of atoms/cell      =          216
     number of atomic types    =            4
     number of electrons       =      3024.00
     number of Kohn-Sham states=         2160
     kinetic-energy cutoff     =     120.0000  Ry
     charge density cutoff     =     480.0000  Ry
     scf convergence threshold =      1.0E-05
     mixing beta               =       0.6500
     number of iterations used =            8  plain     mixing
     Exchange-correlation= PBE
                           (   1   4   3   4   0   0   0)
     Hubbard projectors: atomic
     Hubbard parameters of DFT+U (Dudarev formulation) in eV:
     U(As-4p) =  5.8400
     U(Ga-4p) = -3.2650
     U(In-5p) = -0.9725
     U(Sb-5p) =  4.8900

     Internal variables: lda_plus_u =T, lda_plus_u_kind = 0

     celldm(1)=  32.857261  celldm(2)=   0.000000  celldm(3)=   0.000000
     celldm(4)=   0.000000  celldm(5)=   0.000000  celldm(6)=   0.000000

     crystal axes: (cart. coord. in units of alat)
               a(1) = (   1.000000   0.000000   0.000000 )  
               a(2) = (   0.000000   1.000000   0.000000 )  
               a(3) = (   0.000000   0.000000   1.000000 )  

     reciprocal axes: (cart. coord. in units 2 pi/alat)
               b(1) = (  1.000000  0.000000  0.000000 )  
               b(2) = (  0.000000  1.000000  0.000000 )  
               b(3) = (  0.000000  0.000000  1.000000 )  


     PseudoPot. # 1 for As read from file:
     /work/i254/i254/gentles/data/pseudos/As.pbe.NC-SR.standard.v0.5.UPF
     MD5 check sum: bfe1a874457ce592347346129958e7cf
     Pseudo is Norm-conserving + core correction, Zval = 15.0
     Generated using ONCVPSP code by D. R. Hamann
     Using radial grid of 1358 points,  6 beta functions with: 
                l(1) =   0
                l(2) =   0
                l(3) =   1
                l(4) =   1
                l(5) =   2
                l(6) =   2

     PseudoPot. # 2 for Ga read from file:
     /work/i254/i254/gentles/data/pseudos/Ga.pbe.NC-SR.standard.v0.5.UPF
     MD5 check sum: 2bb81bf6f0a8d9832cf3329850435ecf
     Pseudo is Norm-conserving + core correction, Zval = 13.0
     Generated using ONCVPSP code by D. R. Hamann
     Using radial grid of 1902 points,  6 beta functions with: 
                l(1) =   0
                l(2) =   0
                l(3) =   1
                l(4) =   1
                l(5) =   2
                l(6) =   2

     PseudoPot. # 3 for In read from file:
     /work/i254/i254/gentles/data/pseudos/In.pbe.NC-SR.standard.v0.5.UPF
     MD5 check sum: 835f4bf908c982ff75c88e16816a8d7f
     Pseudo is Norm-conserving + core correction, Zval = 13.0
     Generated using ONCVPSP code by D. R. Hamann
     Using radial grid of 1964 points,  6 beta functions with: 
                l(1) =   0
                l(2) =   0
                l(3) =   1
                l(4) =   1
                l(5) =   2
                l(6) =   2

     PseudoPot. # 4 for Sb read from file:
     /work/i254/i254/gentles/data/pseudos/Sb.pbe.NC-SR.standard.v0.5.UPF
     MD5 check sum: 127f69b6101c45666faeae1b5d611565
     Pseudo is Norm-conserving + core correction, Zval = 15.0
     Generated using ONCVPSP code by D. R. Hamann
     Using radial grid of 1434 points,  6 beta functions with: 
                l(1) =   0
                l(2) =   0
                l(3) =   1
                l(4) =   1
                l(5) =   2
                l(6) =   2

     atomic species   valence    mass     pseudopotential
     As               15.00    74.92160     As( 1.00)
     Ga               13.00    69.72300     Ga( 1.00)
     In               13.00   114.81800     In( 1.00)
     Sb               15.00   121.76000     Sb( 1.00)

     No symmetry found



   Cartesian axes

     site n.     atom                  positions (alat units)
         1        Ga     tau(   1) = (   0.0013270   0.0026360  -0.0053270  )
         2        Ga     tau(   2) = (   0.0058470   0.1606260   0.1627460  )
         3        Ga     tau(   3) = (   0.1711820   0.0065960   0.1619490  )
         4        Ga     tau(   4) = (   0.1681080   0.1665010  -0.0045590  )
         5        As     tau(   5) = (   0.0868090   0.0832790   0.0769360  )
         6        Sb     tau(   6) = (   0.0888950   0.2493350   0.2504900  )
         7        As     tau(   7) = (   0.2535050   0.0818870   0.2498390  )
         8        As     tau(   8) = (   0.2498710   0.2481840   0.0798550  )
         9        Ga     tau(   9) = (  -0.0006550  -0.0019010   0.3449000  )
        10        Ga     tau(  10) = (  -0.0006780   0.1556910   0.5038560  )
        11        Ga     tau(  11) = (   0.1687910  -0.0012940   0.5035160  )
        12        Ga     tau(  12) = (   0.1720170   0.1587340   0.3376580  )
        13        As     tau(  13) = (   0.0860310   0.0792250   0.4214330  )
        14        Sb     tau(  14) = (   0.0828800   0.2488340   0.5863360  )
        15        As     tau(  15) = (   0.2506880   0.0836660   0.5845010  )
        16        As     tau(  16) = (   0.2505440   0.2442640   0.4176520  )
        17        Ga     tau(  17) = (   0.0003840  -0.0002870   0.6697010  )
        18        Ga     tau(  18) = (  -0.0001570   0.1663020   0.8323260  )
        19        Ga     tau(  19) = (   0.1661730   0.0000500   0.8334260  )
        20        Ga     tau(  20) = (   0.1713420   0.1629670   0.6716670  )
        21        As     tau(  21) = (   0.0837170   0.0828220   0.7515860  )
        22        As     tau(  22) = (   0.0859530   0.2482540   0.9127760  )
        23        As     tau(  23) = (   0.2512410   0.0821170   0.9153480  )
        24        As     tau(  24) = (   0.2526060   0.2475960   0.7521050  )
        25        Ga     tau(  25) = (   0.0081250   0.3322040  -0.0029850  )
        26        Ga     tau(  26) = (   0.0050170   0.5028780   0.1588800  )
        27        Ga     tau(  27) = (   0.1721390   0.3365810   0.1610580  )
        28        Ga     tau(  28) = (   0.1632290   0.4966500  -0.0084920  )
        29        As     tau(  29) = (   0.0865240   0.4164850   0.0791220  )
        30        As     tau(  30) = (   0.0879490   0.5803720   0.2479140  )
        31        As     tau(  31) = (   0.2487660   0.4155330   0.2506890  )
        32        Sb     tau(  32) = (   0.2493190   0.5805720   0.0821110  )
        33        Ga     tau(  33) = (   0.0040120   0.3384060   0.3375190  )
        34        Ga     tau(  34) = (   0.0030450   0.4958600   0.5069780  )
        35        Ga     tau(  35) = (   0.1681170   0.3305260   0.4925060  )
        36        Ga     tau(  36) = (   0.1684970   0.5005970   0.3339640  )
        37        As     tau(  37) = (   0.0865500   0.4193320   0.4183390  )
        38        As     tau(  38) = (   0.0807490   0.5828900   0.5873720  )
        39        Sb     tau(  39) = (   0.2522030   0.4157060   0.5835220  )
        40        As     tau(  40) = (   0.2491410   0.5857580   0.4187620  )
        41        Ga     tau(  41) = (  -0.0055560   0.3344390   0.6729210  )
        42        Ga     tau(  42) = (   0.0015660   0.5045020   0.8282130  )
        43        Ga     tau(  43) = (   0.1682050   0.3314760   0.8314310  )
        44        Ga     tau(  44) = (   0.1580110   0.4969480   0.6682340  )
        45        As     tau(  45) = (   0.0809070   0.4145830   0.7524420  )
        46        As     tau(  46) = (   0.0800740   0.5831930   0.9135760  )
        47        As     tau(  47) = (   0.2506940   0.4128920   0.9150510  )
        48        Sb     tau(  48) = (   0.2498060   0.5844460   0.7494440  )
        49        Ga     tau(  49) = (  -0.0058790   0.6635800  -0.0064420  )
        50        Ga     tau(  50) = (  -0.0078780   0.8398780   0.1599590  )
        51        Ga     tau(  51) = (   0.1694910   0.6694200   0.1747080  )
        52        Ga     tau(  52) = (   0.1678210   0.8441870  -0.0000200  )
        53        Sb     tau(  53) = (   0.0821380   0.7504160   0.0811810  )
        54        Sb     tau(  54) = (   0.0839220   0.9193940   0.2488710  )
        55        As     tau(  55) = (   0.2533950   0.7531830   0.2531200  )
        56        As     tau(  56) = (   0.2518990   0.9219800   0.0831460  )
        57        Ga     tau(  57) = (   0.0069540   0.6609510   0.3293410  )
        58        Ga     tau(  58) = (  -0.0033770   0.8391550   0.5086560  )
        59        Ga     tau(  59) = (   0.1693060   0.6619440   0.5085400  )
        60        Ga     tau(  60) = (   0.1750410   0.8361880   0.3352300  )
        61        Sb     tau(  61) = (   0.0851070   0.7512340   0.4217500  )
        62        As     tau(  62) = (   0.0846840   0.9184680   0.5872900  )
        63        As     tau(  63) = (   0.2506660   0.7506500   0.5848660  )
        64        As     tau(  64) = (   0.2533470   0.9197960   0.4179820  )
        65        Ga     tau(  65) = (  -0.0023080   0.6692780   0.6657580  )
        66        Ga     tau(  66) = (  -0.0002020   0.8340680   0.8311910  )
        67        Ga     tau(  67) = (   0.1573840   0.6698560   0.8323010  )
        68        Ga     tau(  68) = (   0.1672080   0.8338350   0.6674890  )
        69        As     tau(  69) = (   0.0804040   0.7524760   0.7471330  )
        70        As     tau(  70) = (   0.0824260   0.9187100   0.9139610  )
        71        Sb     tau(  71) = (   0.2514310   0.7541480   0.9135740  )
        72        As     tau(  72) = (   0.2483070   0.9183690   0.7496720  )
        73        Ga     tau(  73) = (   0.3349350  -0.0005520  -0.0028610  )
        74        Ga     tau(  74) = (   0.3308800   0.1625600   0.1609500  )
        75        Ga     tau(  75) = (   0.4985840   0.0004980   0.1661820  )
        76        Ga     tau(  76) = (   0.4960080   0.1618030  -0.0052540  )
        77        As     tau(  77) = (   0.4157120   0.0807040   0.0805860  )
        78        Sb     tau(  78) = (   0.4166990   0.2495620   0.2487880  )
        79        As     tau(  79) = (   0.5816020   0.0815300   0.2516640  )
        80        Sb     tau(  80) = (   0.5843050   0.2488160   0.0806620  )
        81        Ga     tau(  81) = (   0.3367660   0.0011650   0.3343200  )
        82        Ga     tau(  82) = (   0.3342610   0.1657170   0.5017080  )
        83        Ga     tau(  83) = (   0.5035660   0.0031170   0.4978920  )
        84        Ga     tau(  84) = (   0.5031960   0.1638420   0.3378760  )
        85        As     tau(  85) = (   0.4177590   0.0840520   0.4181270  )
        86        As     tau(  86) = (   0.4168890   0.2450740   0.5853200  )
        87        As     tau(  87) = (   0.5848410   0.0824180   0.5833770  )
        88        As     tau(  88) = (   0.5844950   0.2469940   0.4206730  )
        89        Ga     tau(  89) = (   0.3286980   0.0039730   0.6711260  )
        90        Ga     tau(  90) = (   0.3342110   0.1659520   0.8342700  )
        91        Ga     tau(  91) = (   0.5010700   0.0007770   0.8305730  )
        92        Ga     tau(  92) = (   0.4960990   0.1590680   0.6634740  )
        93        As     tau(  93) = (   0.4152930   0.0827100   0.7512900  )
        94        As     tau(  94) = (   0.4154560   0.2488940   0.9159310  )
        95        As     tau(  95) = (   0.5826520   0.0801810   0.9154270  )
        96        Sb     tau(  96) = (   0.5828090   0.2481910   0.7487580  )
        97        Ga     tau(  97) = (   0.3328510   0.3290870  -0.0011130  )
        98        Ga     tau(  98) = (   0.3343840   0.4900720   0.1660150  )
        99        Ga     tau(  99) = (   0.5015120   0.3412180   0.1655350  )
       100        Ga     tau( 100) = (   0.4968600   0.4956690  -0.0039600  )
       101        As     tau( 101) = (   0.4156560   0.4133720   0.0793480  )
       102        Sb     tau( 102) = (   0.4164930   0.5822900   0.2520290  )
       103        As     tau( 103) = (   0.5867760   0.4157640   0.2516550  )
       104        Sb     tau( 104) = (   0.5844930   0.5828100   0.0814690  )
       105        Ga     tau( 105) = (   0.3248060   0.3308870   0.3342950  )
       106        Ga     tau( 106) = (   0.3364770   0.5105110   0.5016570  )
       107        Ga     tau( 107) = (   0.5027900   0.3263820   0.5068530  )
       108        Ga     tau( 108) = (   0.5102610   0.5003130   0.3348570  )
       109        Sb     tau( 109) = (   0.4184910   0.4152120   0.4190760  )
       110        As     tau( 110) = (   0.4209560   0.5879090   0.5848230  )
       111        As     tau( 111) = (   0.5818490   0.4163550   0.5842400  )
       112        As     tau( 112) = (   0.5854080   0.5867510   0.4177930  )
       113        Ga     tau( 113) = (   0.3387080   0.3275810   0.6715220  )
       114        Ga     tau( 114) = (   0.3358520   0.4948290   0.8347000  )
       115        Ga     tau( 115) = (   0.4980250   0.3351400   0.8367780  )
       116        Ga     tau( 116) = (   0.5001810   0.5001620   0.6673870  )
       117        As     tau( 117) = (   0.4186040   0.4154560   0.7507610  )
       118        As     tau( 118) = (   0.4194390   0.5795680   0.9125740  )
       119        As     tau( 119) = (   0.5840460   0.4174450   0.9144130  )
       120        As     tau( 120) = (   0.5820440   0.5835270   0.7505870  )
       121        Ga     tau( 121) = (   0.3392320   0.6615310  -0.0059770  )
       122        Ga     tau( 122) = (   0.3302650   0.8397600   0.1697010  )
       123        Ga     tau( 123) = (   0.5044020   0.6727760   0.1717450  )
       124        Ga     tau( 124) = (   0.5039880   0.8401420  -0.0079450  )
       125        Sb     tau( 125) = (   0.4184110   0.7553010   0.0812620  )
       126        As     tau( 126) = (   0.4174700   0.9182140   0.2514630  )
       127        As     tau( 127) = (   0.5827800   0.7528720   0.2558700  )
       128        As     tau( 128) = (   0.5812560   0.9193450   0.0816690  )
       129        Ga     tau( 129) = (   0.3310110   0.6708640   0.3391340  )
       130        Ga     tau( 130) = (   0.3304280   0.8310750   0.4980130  )
       131        Ga     tau( 131) = (   0.5021240   0.6688030   0.5009870  )
       132        Ga     tau( 132) = (   0.4985650   0.8349700   0.3359960  )
       133        As     tau( 133) = (   0.4171340   0.7508390   0.4188370  )
       134        Sb     tau( 134) = (   0.4169430   0.9171670   0.5859880  )
       135        As     tau( 135) = (   0.5842920   0.7509470   0.5843660  )
       136        As     tau( 136) = (   0.5821900   0.9167190   0.4183230  )
       137        Ga     tau( 137) = (   0.3393950   0.6733370   0.6642300  )
       138        Ga     tau( 138) = (   0.3388810   0.8392960   0.8262830  )
       139        Ga     tau( 139) = (   0.4994180   0.6661520   0.8318840  )
       140        Ga     tau( 140) = (   0.5065390   0.8312340   0.6706460  )
       141        As     tau( 141) = (   0.4207310   0.7516040   0.7496600  )
       142        As     tau( 142) = (   0.4184520   0.9201630   0.9119110  )
       143        As     tau( 143) = (   0.5823880   0.7529280   0.9100250  )
       144        As     tau( 144) = (   0.5857540   0.9180580   0.7502450  )
       145        Ga     tau( 145) = (   0.6654000  -0.0004980  -0.0006230  )
       146        Ga     tau( 146) = (   0.6677270   0.1605620   0.1696870  )
       147        Ga     tau( 147) = (   0.8324190  -0.0005510   0.1543450  )
       148        Ga     tau( 148) = (   0.8289370   0.1619350  -0.0075330  )
       149        As     tau( 149) = (   0.7475980   0.0829220   0.0791650  )
       150        As     tau( 150) = (   0.7439720   0.2485140   0.2504130  )
       151        Sb     tau( 151) = (   0.9148250   0.0805000   0.2509830  )
       152        Sb     tau( 152) = (   0.9159630   0.2466520   0.0798460  )
       153        Ga     tau( 153) = (   0.6619140   0.0033150   0.3388140  )
       154        Ga     tau( 154) = (   0.6677260   0.1674090   0.5040390  )
       155        Ga     tau( 155) = (   0.8299080   0.0003100   0.5038470  )
       156        Ga     tau( 156) = (   0.8230030   0.1671430   0.3338620  )
       157        As     tau( 157) = (   0.7466290   0.0837040   0.4211310  )
       158        As     tau( 158) = (   0.7502490   0.2506260   0.5860510  )
       159        As     tau( 159) = (   0.9143920   0.0790700   0.5870810  )
       160        Sb     tau( 160) = (   0.9150810   0.2493540   0.4202450  )
       161        Ga     tau( 161) = (   0.6667170   0.0001140   0.6669230  )
       162        Ga     tau( 162) = (   0.6686180   0.1605110   0.8354530  )
       163        Ga     tau( 163) = (   0.8337150  -0.0002130   0.8306900  )
       164        Ga     tau( 164) = (   0.8330420   0.1655560   0.6671340  )
       165        As     tau( 165) = (   0.7508040   0.0818560   0.7491440  )
       166        As     tau( 166) = (   0.7483240   0.2472720   0.9135290  )
       167        As     tau( 167) = (   0.9161740   0.0826780   0.9124810  )
       168        As     tau( 168) = (   0.9147290   0.2466960   0.7502320  )
       169        Ga     tau( 169) = (   0.6701480   0.3362700  -0.0066930  )
       170        Ga     tau( 170) = (   0.6696160   0.4952880   0.1697920  )
       171        Ga     tau( 171) = (   0.8248900   0.3304070   0.1653410  )
       172        Ga     tau( 172) = (   0.8287680   0.5026790   0.0024580  )
       173        As     tau( 173) = (   0.7484420   0.4163160   0.0820400  )
       174        As     tau( 174) = (   0.7456260   0.5826160   0.2521620  )
       175        Sb     tau( 175) = (   0.9142490   0.4196880   0.2481790  )
       176        As     tau( 176) = (   0.9159200   0.5827900   0.0809630  )
       177        Ga     tau( 177) = (   0.6636880   0.3295710   0.3354170  )
       178        Ga     tau( 178) = (   0.6608500   0.4971060   0.4976600  )
       179        Ga     tau( 179) = (   0.8291690   0.3373410   0.5067800  )
       180        Ga     tau( 180) = (   0.8218380   0.4998870   0.3371350  )
       181        As     tau( 181) = (   0.7442090   0.4134270   0.4188020  )
       182        Sb     tau( 182) = (   0.7490490   0.5829800   0.5858130  )
       183        As     tau( 183) = (   0.9163460   0.4163940   0.5882990  )
       184        Sb     tau( 184) = (   0.9157080   0.5829850   0.4200560  )
       185        Ga     tau( 185) = (   0.6699110   0.3379750   0.6639880  )
       186        Ga     tau( 186) = (   0.6665070   0.4998230   0.8308890  )
       187        Ga     tau( 187) = (   0.8280110   0.3263160   0.8286430  )
       188        Ga     tau( 188) = (   0.8378590   0.4982810   0.6726310  )
       189        As     tau( 189) = (   0.7504860   0.4162790   0.7500050  )
       190        As     tau( 190) = (   0.7503890   0.5828620   0.9115380  )
       191        Sb     tau( 191) = (   0.9148220   0.4163720   0.9137560  )
       192        As     tau( 192) = (   0.9177650   0.5867530   0.7489680  )
       193        Ga     tau( 193) = (   0.6657320   0.6676530  -0.0139040  )
       194        Ga     tau( 194) = (   0.6570640   0.8338610   0.1667450  )
       195        Ga     tau( 195) = (   0.8309560   0.6579230   0.1671090  )
       196        Ga     tau( 196) = (   0.8367650   0.8378800  -0.0082160  )
       197        Sb     tau( 197) = (   0.7490270   0.7504450   0.0794610  )
       198        Sb     tau( 198) = (   0.7487540   0.9183870   0.2502240  )
       199        Sb     tau( 199) = (   0.9144100   0.7496510   0.2514380  )
       200        As     tau( 200) = (   0.9166470   0.9209600   0.0735640  )
       201        Ga     tau( 201) = (   0.6673140   0.6695570   0.3353140  )
       202        Ga     tau( 202) = (   0.6647130   0.8351690   0.5026600  )
       203        Ga     tau( 203) = (   0.8327890   0.6774390   0.5034160  )
       204        Ga     tau( 204) = (   0.8322540   0.8349020   0.3444710  )
       205        As     tau( 205) = (   0.7468900   0.7531900   0.4206700  )
       206        As     tau( 206) = (   0.7481960   0.9167450   0.5852130  )
       207        As     tau( 207) = (   0.9151400   0.7550870   0.5877730  )
       208        As     tau( 208) = (   0.9143380   0.9181510   0.4252670  )
       209        Ga     tau( 209) = (   0.6625210   0.6704450   0.6714630  )
       210        Ga     tau( 210) = (   0.6680990   0.8360170   0.8320830  )
       211        Ga     tau( 211) = (   0.8328800   0.6675410   0.8304990  )
       212        Ga     tau( 212) = (   0.8314930   0.8352410   0.6690430  )
       213        As     tau( 213) = (   0.7490320   0.7519750   0.7508230  )
       214        As     tau( 214) = (   0.7496990   0.9192420   0.9143460  )
       215        As     tau( 215) = (   0.9161820   0.7505130   0.9115390  )
       216        As     tau( 216) = (   0.9163760   0.9166650   0.7504280  )

     number of k points=     8
                       cart. coord. in units 2pi/alat
        k(    1) = (   0.0000000   0.0000000   0.0000000), wk =   0.2500000
        k(    2) = (   0.0000000   0.0000000  -0.5000000), wk =   0.2500000
        k(    3) = (   0.0000000  -0.5000000  -0.5000000), wk =   0.2500000
        k(    4) = (  -0.5000000  -0.5000000  -0.5000000), wk =   0.2500000
        k(    5) = (  -0.5000000   0.0000000   0.0000000), wk =   0.2500000
        k(    6) = (   0.0000000  -0.5000000   0.0000000), wk =   0.2500000
        k(    7) = (  -0.5000000   0.0000000   0.5000000), wk =   0.2500000
        k(    8) = (  -0.5000000   0.5000000   0.0000000), wk =   0.2500000

     Dense  grid:  6299761 G-vectors     FFT dimensions: ( 240, 240, 240)

     Estimated max dynamical RAM per process >       2.44 GB

     Estimated total dynamical RAM >    1554.15 GB

     Initial potential from superposition of free atoms

     starting charge    3023.6766, renormalised to    3024.0000

     STARTING HUBBARD OCCUPATIONS:

     =================== HUBBARD OCCUPATIONS ===================
     ------------------------ ATOM    1 ------------------------
     Tr[ns(  1)] =   1.00000
     eigenvalues:
       0.167  0.167  0.167
     eigenvectors (columns):
       1.000  0.000  0.000
       0.000  1.000  0.000
       0.000  0.000  1.000
     occupation matrix ns (before diag.):
       0.167  0.000  0.000
       0.000  0.167  0.000
       0.000  0.000  0.167
     ------------------------ ATOM    2 ------------------------
     Tr[ns(  2)] =   1.00000
     eigenvalues:
       0.167  0.167  0.167
     eigenvectors (columns):
       1.000  0.000  0.000
       0.000  1.000  0.000
       0.000  0.000  1.000
     occupation matrix ns (before diag.):
       0.167  0.000  0.000
       0.000  0.167  0.000
       0.000  0.000  0.167
     ------------------------ ATOM    3 ------------------------
     Tr[ns(  3)] =   1.00000
     eigenvalues:
       0.167  0.167  0.167
     eigenvectors (columns):
       1.000  0.000  0.000
       0.000  1.000  0.000
       0.000  0.000  1.000
     occupation matrix ns (before diag.):
       0.167  0.000  0.000
       0.000  0.167  0.000
       0.000  0.000  0.167
     ------------------------ ATOM    4 ------------------------
     Tr[ns(  4)] =   1.00000
     eigenvalues:
       0.167  0.167  0.167
     eigenvectors (columns):
       1.000  0.000  0.000
       0.000  1.000  0.000
       0.000  0.000  1.000
     occupation matrix ns (before diag.):
       0.167  0.000  0.000
       0.000  0.167  0.000
       0.000  0.000  0.167
     ------------------------ ATOM    5 ------------------------
     Tr[ns(  5)] =   3.00000
     eigenvalues:
       0.500  0.500  0.500
     eigenvectors (columns):
       1.000  0.000  0.000
       0.000  1.000  0.000
       0.000  0.000  1.000
     occupation matrix ns (before diag.):
       0.500  0.000  0.000
       0.000  0.500  0.000
       0.000  0.000  0.500
     ------------------------ ATOM    6 ------------------------
     Tr[ns(  6)] =   3.00000
     eigenvalues:
       0.500  0.500  0.500
     eigenvectors (columns):
       1.000  0.000  0.000
       0.000  1.000  0.000
       0.000  0.000  1.000
     occupation matrix ns (before diag.):
       0.500  0.000  0.000
       0.000  0.500  0.000
       0.000  0.000  0.500
     ------------------------ ATOM    7 ------------------------
     Tr[ns(  7)] =   3.00000
     eigenvalues:
       0.500  0.500  0.500
     eigenvectors (columns):
       1.000  0.000  0.000
       0.000  1.000  0.000
       0.000  0.000  1.000
     occupation matrix ns (before diag.):
       0.500  0.000  0.000
       0.000  0.500  0.000
       0.000  0.000  0.500
     ------------------------ ATOM    8 ------------------------
     Tr[ns(  8)] =   3.00000
     eigenvalues:
       0.500  0.500  0.500
     eigenvectors (columns):
       1.000  0.000  0.000
       0.000  1.000  0.000
       0.000  0.000  1.000
     occupation matrix ns (before diag.):
       0.500  0.000  0.000
       0.000  0.500  0.000
       0.000  0.000  0.500
     ------------------------ ATOM    9 ------------------------
     Tr[ns(  9)] =   1.00000
     eigenvalues:
       0.167  0.167  0.167
     eigenvectors (columns):
       1.000  0.000  0.000
       0.000  1.000  0.000
       0.000  0.000  1.000
     occupation matrix ns (before diag.):
       0.167  0.000  0.000
       0.000  0.167  0.000
       0.000  0.000  0.167
     ------------------------ ATOM   10 ------------------------
     Tr[ns( 10)] =   1.00000
     eigenvalues:
       0.167  0.167  0.167
     eigenvectors (columns):
       1.000  0.000  0.000
       0.000  1.000  0.000
       0.000  0.000  1.000
     occupation matrix ns (before diag.):
       0.167  0.000  0.000
       0.000  0.167  0.000
       0.000  0.000  0.167
     ------------------------ ATOM   11 ------------------------
     Tr[ns( 11)] =   1.00000
     eigenvalues:
       0.167  0.167  0.167
     eigenvectors (columns):
       1.000  0.000  0.000
       0.000  1.000  0.000
       0.000  0.000  1.000
     occupation matrix ns (before diag.):
       0.167  0.000  0.000
       0.000  0.167  0.000
       0.000  0.000  0.167
     ------------------------ ATOM   12 ------------------------
     Tr[ns( 12)] =   1.00000
     eigenvalues:
       0.167  0.167  0.167
     eigenvectors (columns):
       1.000  0.000  0.000
       0.000  1.000  0.000
       0.000  0.000  1.000
     occupation matrix ns (before diag.):
       0.167  0.000  0.000
       0.000  0.167  0.000
       0.000  0.000  0.167
     ------------------------ ATOM   13 ------------------------
     Tr[ns( 13)] =   3.00000
     eigenvalues:
       0.500  0.500  0.500
     eigenvectors (columns):
       1.000  0.000  0.000
       0.000  1.000  0.000
       0.000  0.000  1.000
     occupation matrix ns (before diag.):
       0.500  0.000  0.000
       0.000  0.500  0.000
       0.000  0.000  0.500
     ------------------------ ATOM   14 ------------------------
     Tr[ns( 14)] =   3.00000
     eigenvalues:
       0.500  0.500  0.500
     eigenvectors (columns):
       1.000  0.000  0.000
       0.000  1.000  0.000
       0.000  0.000  1.000
     occupation matrix ns (before diag.):
       0.500  0.000  0.000
       0.000  0.500  0.000
       0.000  0.000  0.500
     ------------------------ ATOM   15 ------------------------
     Tr[ns( 15)] =   3.00000
     eigenvalues:
       0.500  0.500  0.500
     eigenvectors (columns):
       1.000  0.000  0.000
       0.000  1.000  0.000
       0.000  0.000  1.000
     occupation matrix ns (before diag.):
       0.500  0.000  0.000
       0.000  0.500  0.000
       0.000  0.000  0.500
     ------------------------ ATOM   16 ------------------------
     Tr[ns( 16)] =   3.00000
     eigenvalues:
       0.500  0.500  0.500
     eigenvectors (columns):
       1.000  0.000  0.000
       0.000  1.000  0.000
       0.000  0.000  1.000
     occupation matrix ns (before diag.):
       0.500  0.000  0.000
       0.000  0.500  0.000
       0.000  0.000  0.500
     ------------------------ ATOM   17 ------------------------
     Tr[ns( 17)] =   1.00000
     eigenvalues:
       0.167  0.167  0.167
     eigenvectors (columns):
       1.000  0.000  0.000
       0.000  1.000  0.000
       0.000  0.000  1.000
     occupation matrix ns (before diag.):
       0.167  0.000  0.000
       0.000  0.167  0.000
       0.000  0.000  0.167
     ------------------------ ATOM   18 ------------------------
     Tr[ns( 18)] =   1.00000
     eigenvalues:
       0.167  0.167  0.167
     eigenvectors (columns):
       1.000  0.000  0.000
       0.000  1.000  0.000
       0.000  0.000  1.000
     occupation matrix ns (before diag.):
       0.167  0.000  0.000
       0.000  0.167  0.000
       0.000  0.000  0.167
     ------------------------ ATOM   19 ------------------------
     Tr[ns( 19)] =   1.00000
     eigenvalues:
       0.167  0.167  0.167
     eigenvectors (columns):
       1.000  0.000  0.000
       0.000  1.000  0.000
       0.000  0.000  1.000
     occupation matrix ns (before diag.):
       0.167  0.000  0.000
       0.000  0.167  0.000
       0.000  0.000  0.167
     ------------------------ ATOM   20 ------------------------
     Tr[ns( 20)] =   1.00000
     eigenvalues:
       0.167  0.167  0.167
     eigenvectors (columns):
       1.000  0.000  0.000
       0.000  1.000  0.000
       0.000  0.000  1.000
     occupation matrix ns (before diag.):
       0.167  0.000  0.000
       0.000  0.167  0.000
       0.000  0.000  0.167
     ------------------------ ATOM   21 ------------------------
     Tr[ns( 21)] =   3.00000
     eigenvalues:
       0.500  0.500  0.500
     eigenvectors (columns):
       1.000  0.000  0.000
       0.000  1.000  0.000
       0.000  0.000  1.000
     occupation matrix ns (before diag.):
       0.500  0.000  0.000
       0.000  0.500  0.000
       0.000  0.000  0.500
     ------------------------ ATOM   22 ------------------------
     Tr[ns( 22)] =   3.00000
     eigenvalues:
       0.500  0.500  0.500
     eigenvectors (columns):
       1.000  0.000  0.000
       0.000  1.000  0.000
       0.000  0.000  1.000
     occupation matrix ns (before diag.):
       0.500  0.000  0.000
       0.000  0.500  0.000
       0.000  0.000  0.500
     ------------------------ ATOM   23 ------------------------
     Tr[ns( 23)] =   3.00000
     eigenvalues:
       0.500  0.500  0.500
     eigenvectors (columns):
       1.000  0.000  0.000
       0.000  1.000  0.000
       0.000  0.000  1.000
     occupation matrix ns (before diag.):
       0.500  0.000  0.000
       0.000  0.500  0.000
       0.000  0.000  0.500
     ------------------------ ATOM   24 ------------------------
     Tr[ns( 24)] =   3.00000
     eigenvalues:
       0.500  0.500  0.500
     eigenvectors (columns):
       1.000  0.000  0.000
       0.000  1.000  0.000
       0.000  0.000  1.000
     occupation matrix ns (before diag.):
       0.500  0.000  0.000
       0.000  0.500  0.000
       0.000  0.000  0.500
     ------------------------ ATOM   25 ------------------------
     Tr[ns( 25)] =   1.00000
     eigenvalues:
       0.167  0.167  0.167
     eigenvectors (columns):
       1.000  0.000  0.000
       0.000  1.000  0.000
       0.000  0.000  1.000
     occupation matrix ns (before diag.):
       0.167  0.000  0.000
       0.000  0.167  0.000
       0.000  0.000  0.167
     ------------------------ ATOM   26 ------------------------
     Tr[ns( 26)] =   1.00000
     eigenvalues:
       0.167  0.167  0.167
     eigenvectors (columns):
       1.000  0.000  0.000
       0.000  1.000  0.000
       0.000  0.000  1.000
     occupation matrix ns (before diag.):
       0.167  0.000  0.000
       0.000  0.167  0.000
       0.000  0.000  0.167
     ------------------------ ATOM   27 ------------------------
     Tr[ns( 27)] =   1.00000
     eigenvalues:
       0.167  0.167  0.167
     eigenvectors (columns):
       1.000  0.000  0.000
       0.000  1.000  0.000
       0.000  0.000  1.000
     occupation matrix ns (before diag.):
       0.167  0.000  0.000
       0.000  0.167  0.000
       0.000  0.000  0.167
     ------------------------ ATOM   28 ------------------------
     Tr[ns( 28)] =   1.00000
     eigenvalues:
       0.167  0.167  0.167
     eigenvectors (columns):
       1.000  0.000  0.000
       0.000  1.000  0.000
       0.000  0.000  1.000
     occupation matrix ns (before diag.):
       0.167  0.000  0.000
       0.000  0.167  0.000
       0.000  0.000  0.167
     ------------------------ ATOM   29 ------------------------
     Tr[ns( 29)] =   3.00000
     eigenvalues:
       0.500  0.500  0.500
     eigenvectors (columns):
       1.000  0.000  0.000
       0.000  1.000  0.000
       0.000  0.000  1.000
     occupation matrix ns (before diag.):
       0.500  0.000  0.000
       0.000  0.500  0.000
       0.000  0.000  0.500
     ------------------------ ATOM   30 ------------------------
     Tr[ns( 30)] =   3.00000
     eigenvalues:
       0.500  0.500  0.500
     eigenvectors (columns):
       1.000  0.000  0.000
       0.000  1.000  0.000
       0.000  0.000  1.000
     occupation matrix ns (before diag.):
       0.500  0.000  0.000
       0.000  0.500  0.000
       0.000  0.000  0.500
     ------------------------ ATOM   31 ------------------------
     Tr[ns( 31)] =   3.00000
     eigenvalues:
       0.500  0.500  0.500
     eigenvectors (columns):
       1.000  0.000  0.000
       0.000  1.000  0.000
       0.000  0.000  1.000
     occupation matrix ns (before diag.):
       0.500  0.000  0.000
       0.000  0.500  0.000
       0.000  0.000  0.500
     ------------------------ ATOM   32 ------------------------
     Tr[ns( 32)] =   3.00000
     eigenvalues:
       0.500  0.500  0.500
     eigenvectors (columns):
       1.000  0.000  0.000
       0.000  1.000  0.000
       0.000  0.000  1.000
     occupation matrix ns (before diag.):
       0.500  0.000  0.000
       0.000  0.500  0.000
       0.000  0.000  0.500
     ------------------------ ATOM   33 ------------------------
     Tr[ns( 33)] =   1.00000
     eigenvalues:
       0.167  0.167  0.167
     eigenvectors (columns):
       1.000  0.000  0.000
       0.000  1.000  0.000
       0.000  0.000  1.000
     occupation matrix ns (before diag.):
       0.167  0.000  0.000
       0.000  0.167  0.000
       0.000  0.000  0.167
     ------------------------ ATOM   34 ------------------------
     Tr[ns( 34)] =   1.00000
     eigenvalues:
       0.167  0.167  0.167
     eigenvectors (columns):
       1.000  0.000  0.000
       0.000  1.000  0.000
       0.000  0.000  1.000
     occupation matrix ns (before diag.):
       0.167  0.000  0.000
       0.000  0.167  0.000
       0.000  0.000  0.167
     ------------------------ ATOM   35 ------------------------
     Tr[ns( 35)] =   1.00000
     eigenvalues:
       0.167  0.167  0.167
     eigenvectors (columns):
       1.000  0.000  0.000
       0.000  1.000  0.000
       0.000  0.000  1.000
     occupation matrix ns (before diag.):
       0.167  0.000  0.000
       0.000  0.167  0.000
       0.000  0.000  0.167
     ------------------------ ATOM   36 ------------------------
     Tr[ns( 36)] =   1.00000
     eigenvalues:
       0.167  0.167  0.167
     eigenvectors (columns):
       1.000  0.000  0.000
       0.000  1.000  0.000
       0.000  0.000  1.000
     occupation matrix ns (before diag.):
       0.167  0.000  0.000
       0.000  0.167  0.000
       0.000  0.000  0.167
     ------------------------ ATOM   37 ------------------------
     Tr[ns( 37)] =   3.00000
     eigenvalues:
       0.500  0.500  0.500
     eigenvectors (columns):
       1.000  0.000  0.000
       0.000  1.000  0.000
       0.000  0.000  1.000
     occupation matrix ns (before diag.):
       0.500  0.000  0.000
       0.000  0.500  0.000
       0.000  0.000  0.500
     ------------------------ ATOM   38 ------------------------
     Tr[ns( 38)] =   3.00000
     eigenvalues:
       0.500  0.500  0.500
     eigenvectors (columns):
       1.000  0.000  0.000
       0.000  1.000  0.000
       0.000  0.000  1.000
     occupation matrix ns (before diag.):
       0.500  0.000  0.000
       0.000  0.500  0.000
       0.000  0.000  0.500
     ------------------------ ATOM   39 ------------------------
     Tr[ns( 39)] =   3.00000
     eigenvalues:
       0.500  0.500  0.500
     eigenvectors (columns):
       1.000  0.000  0.000
       0.000  1.000  0.000
       0.000  0.000  1.000
     occupation matrix ns (before diag.):
       0.500  0.000  0.000
       0.000  0.500  0.000
       0.000  0.000  0.500
     ------------------------ ATOM   40 ------------------------
     Tr[ns( 40)] =   3.00000
     eigenvalues:
       0.500  0.500  0.500
     eigenvectors (columns):
       1.000  0.000  0.000
       0.000  1.000  0.000
       0.000  0.000  1.000
     occupation matrix ns (before diag.):
       0.500  0.000  0.000
       0.000  0.500  0.000
       0.000  0.000  0.500
     ------------------------ ATOM   41 ------------------------
     Tr[ns( 41)] =   1.00000
     eigenvalues:
       0.167  0.167  0.167
     eigenvectors (columns):
       1.000  0.000  0.000
       0.000  1.000  0.000
       0.000  0.000  1.000
     occupation matrix ns (before diag.):
       0.167  0.000  0.000
       0.000  0.167  0.000
       0.000  0.000  0.167
     ------------------------ ATOM   42 ------------------------
     Tr[ns( 42)] =   1.00000
     eigenvalues:
       0.167  0.167  0.167
     eigenvectors (columns):
       1.000  0.000  0.000
       0.000  1.000  0.000
       0.000  0.000  1.000
     occupation matrix ns (before diag.):
       0.167  0.000  0.000
       0.000  0.167  0.000
       0.000  0.000  0.167
     ------------------------ ATOM   43 ------------------------
     Tr[ns( 43)] =   1.00000
     eigenvalues:
       0.167  0.167  0.167
     eigenvectors (columns):
       1.000  0.000  0.000
       0.000  1.000  0.000
       0.000  0.000  1.000
     occupation matrix ns (before diag.):
       0.167  0.000  0.000
       0.000  0.167  0.000
       0.000  0.000  0.167
     ------------------------ ATOM   44 ------------------------
     Tr[ns( 44)] =   1.00000
     eigenvalues:
       0.167  0.167  0.167
     eigenvectors (columns):
       1.000  0.000  0.000
       0.000  1.000  0.000
       0.000  0.000  1.000
     occupation matrix ns (before diag.):
       0.167  0.000  0.000
       0.000  0.167  0.000
       0.000  0.000  0.167
     ------------------------ ATOM   45 ------------------------
     Tr[ns( 45)] =   3.00000
     eigenvalues:
       0.500  0.500  0.500
     eigenvectors (columns):
       1.000  0.000  0.000
       0.000  1.000  0.000
       0.000  0.000  1.000
     occupation matrix ns (before diag.):
       0.500  0.000  0.000
       0.000  0.500  0.000
       0.000  0.000  0.500
     ------------------------ ATOM   46 ------------------------
     Tr[ns( 46)] =   3.00000
     eigenvalues:
       0.500  0.500  0.500
     eigenvectors (columns):
       1.000  0.000  0.000
       0.000  1.000  0.000
       0.000  0.000  1.000
     occupation matrix ns (before diag.):
       0.500  0.000  0.000
       0.000  0.500  0.000
       0.000  0.000  0.500
     ------------------------ ATOM   47 ------------------------
     Tr[ns( 47)] =   3.00000
     eigenvalues:
       0.500  0.500  0.500
     eigenvectors (columns):
       1.000  0.000  0.000
       0.000  1.000  0.000
       0.000  0.000  1.000
     occupation matrix ns (before diag.):
       0.500  0.000  0.000
       0.000  0.500  0.000
       0.000  0.000  0.500
     ------------------------ ATOM   48 ------------------------
     Tr[ns( 48)] =   3.00000
     eigenvalues:
       0.500  0.500  0.500
     eigenvectors (columns):
       1.000  0.000  0.000
       0.000  1.000  0.000
       0.000  0.000  1.000
     occupation matrix ns (before diag.):
       0.500  0.000  0.000
       0.000  0.500  0.000
       0.000  0.000  0.500
     ------------------------ ATOM   49 ------------------------
     Tr[ns( 49)] =   1.00000
     eigenvalues:
       0.167  0.167  0.167
     eigenvectors (columns):
       1.000  0.000  0.000
       0.000  1.000  0.000
       0.000  0.000  1.000
     occupation matrix ns (before diag.):
       0.167  0.000  0.000
       0.000  0.167  0.000
       0.000  0.000  0.167
     ------------------------ ATOM   50 ------------------------
     Tr[ns( 50)] =   1.00000
     eigenvalues:
       0.167  0.167  0.167
     eigenvectors (columns):
       1.000  0.000  0.000
       0.000  1.000  0.000
       0.000  0.000  1.000
     occupation matrix ns (before diag.):
       0.167  0.000  0.000
       0.000  0.167  0.000
       0.000  0.000  0.167
     ------------------------ ATOM   51 ------------------------
     Tr[ns( 51)] =   1.00000
     eigenvalues:
       0.167  0.167  0.167
     eigenvectors (columns):
       1.000  0.000  0.000
       0.000  1.000  0.000
       0.000  0.000  1.000
     occupation matrix ns (before diag.):
       0.167  0.000  0.000
       0.000  0.167  0.000
       0.000  0.000  0.167
     ------------------------ ATOM   52 ------------------------
     Tr[ns( 52)] =   1.00000
     eigenvalues:
       0.167  0.167  0.167
     eigenvectors (columns):
       1.000  0.000  0.000
       0.000  1.000  0.000
       0.000  0.000  1.000
     occupation matrix ns (before diag.):
       0.167  0.000  0.000
       0.000  0.167  0.000
       0.000  0.000  0.167
     ------------------------ ATOM   53 ------------------------
     Tr[ns( 53)] =   3.00000
     eigenvalues:
       0.500  0.500  0.500
     eigenvectors (columns):
       1.000  0.000  0.000
       0.000  1.000  0.000
       0.000  0.000  1.000
     occupation matrix ns (before diag.):
       0.500  0.000  0.000
       0.000  0.500  0.000
       0.000  0.000  0.500
     ------------------------ ATOM   54 ------------------------
     Tr[ns( 54)] =   3.00000
     eigenvalues:
       0.500  0.500  0.500
     eigenvectors (columns):
       1.000  0.000  0.000
       0.000  1.000  0.000
       0.000  0.000  1.000
     occupation matrix ns (before diag.):
       0.500  0.000  0.000
       0.000  0.500  0.000
       0.000  0.000  0.500
     ------------------------ ATOM   55 ------------------------
     Tr[ns( 55)] =   3.00000
     eigenvalues:
       0.500  0.500  0.500
     eigenvectors (columns):
       1.000  0.000  0.000
       0.000  1.000  0.000
       0.000  0.000  1.000
     occupation matrix ns (before diag.):
       0.500  0.000  0.000
       0.000  0.500  0.000
       0.000  0.000  0.500
     ------------------------ ATOM   56 ------------------------
     Tr[ns( 56)] =   3.00000
     eigenvalues:
       0.500  0.500  0.500
     eigenvectors (columns):
       1.000  0.000  0.000
       0.000  1.000  0.000
       0.000  0.000  1.000
     occupation matrix ns (before diag.):
       0.500  0.000  0.000
       0.000  0.500  0.000
       0.000  0.000  0.500
     ------------------------ ATOM   57 ------------------------
     Tr[ns( 57)] =   1.00000
     eigenvalues:
       0.167  0.167  0.167
     eigenvectors (columns):
       1.000  0.000  0.000
       0.000  1.000  0.000
       0.000  0.000  1.000
     occupation matrix ns (before diag.):
       0.167  0.000  0.000
       0.000  0.167  0.000
       0.000  0.000  0.167
     ------------------------ ATOM   58 ------------------------
     Tr[ns( 58)] =   1.00000
     eigenvalues:
       0.167  0.167  0.167
     eigenvectors (columns):
       1.000  0.000  0.000
       0.000  1.000  0.000
       0.000  0.000  1.000
     occupation matrix ns (before diag.):
       0.167  0.000  0.000
       0.000  0.167  0.000
       0.000  0.000  0.167
     ------------------------ ATOM   59 ------------------------
     Tr[ns( 59)] =   1.00000
     eigenvalues:
       0.167  0.167  0.167
     eigenvectors (columns):
       1.000  0.000  0.000
       0.000  1.000  0.000
       0.000  0.000  1.000
     occupation matrix ns (before diag.):
       0.167  0.000  0.000
       0.000  0.167  0.000
       0.000  0.000  0.167
     ------------------------ ATOM   60 ------------------------
     Tr[ns( 60)] =   1.00000
     eigenvalues:
       0.167  0.167  0.167
     eigenvectors (columns):
       1.000  0.000  0.000
       0.000  1.000  0.000
       0.000  0.000  1.000
     occupation matrix ns (before diag.):
       0.167  0.000  0.000
       0.000  0.167  0.000
       0.000  0.000  0.167
     ------------------------ ATOM   61 ------------------------
     Tr[ns( 61)] =   3.00000
     eigenvalues:
       0.500  0.500  0.500
     eigenvectors (columns):
       1.000  0.000  0.000
       0.000  1.000  0.000
       0.000  0.000  1.000
     occupation matrix ns (before diag.):
       0.500  0.000  0.000
       0.000  0.500  0.000
       0.000  0.000  0.500
     ------------------------ ATOM   62 ------------------------
     Tr[ns( 62)] =   3.00000
     eigenvalues:
       0.500  0.500  0.500
     eigenvectors (columns):
       1.000  0.000  0.000
       0.000  1.000  0.000
       0.000  0.000  1.000
     occupation matrix ns (before diag.):
       0.500  0.000  0.000
       0.000  0.500  0.000
       0.000  0.000  0.500
     ------------------------ ATOM   63 ------------------------
     Tr[ns( 63)] =   3.00000
     eigenvalues:
       0.500  0.500  0.500
     eigenvectors (columns):
       1.000  0.000  0.000
       0.000  1.000  0.000
       0.000  0.000  1.000
     occupation matrix ns (before diag.):
       0.500  0.000  0.000
       0.000  0.500  0.000
       0.000  0.000  0.500
     ------------------------ ATOM   64 ------------------------
     Tr[ns( 64)] =   3.00000
     eigenvalues:
       0.500  0.500  0.500
     eigenvectors (columns):
       1.000  0.000  0.000
       0.000  1.000  0.000
       0.000  0.000  1.000
     occupation matrix ns (before diag.):
       0.500  0.000  0.000
       0.000  0.500  0.000
       0.000  0.000  0.500
     ------------------------ ATOM   65 ------------------------
     Tr[ns( 65)] =   1.00000
     eigenvalues:
       0.167  0.167  0.167
     eigenvectors (columns):
       1.000  0.000  0.000
       0.000  1.000  0.000
       0.000  0.000  1.000
     occupation matrix ns (before diag.):
       0.167  0.000  0.000
       0.000  0.167  0.000
       0.000  0.000  0.167
     ------------------------ ATOM   66 ------------------------
     Tr[ns( 66)] =   1.00000
     eigenvalues:
       0.167  0.167  0.167
     eigenvectors (columns):
       1.000  0.000  0.000
       0.000  1.000  0.000
       0.000  0.000  1.000
     occupation matrix ns (before diag.):
       0.167  0.000  0.000
       0.000  0.167  0.000
       0.000  0.000  0.167
     ------------------------ ATOM   67 ------------------------
     Tr[ns( 67)] =   1.00000
     eigenvalues:
       0.167  0.167  0.167
     eigenvectors (columns):
       1.000  0.000  0.000
       0.000  1.000  0.000
       0.000  0.000  1.000
     occupation matrix ns (before diag.):
       0.167  0.000  0.000
       0.000  0.167  0.000
       0.000  0.000  0.167
     ------------------------ ATOM   68 ------------------------
     Tr[ns( 68)] =   1.00000
     eigenvalues:
       0.167  0.167  0.167
     eigenvectors (columns):
       1.000  0.000  0.000
       0.000  1.000  0.000
       0.000  0.000  1.000
     occupation matrix ns (before diag.):
       0.167  0.000  0.000
       0.000  0.167  0.000
       0.000  0.000  0.167
     ------------------------ ATOM   69 ------------------------
     Tr[ns( 69)] =   3.00000
     eigenvalues:
       0.500  0.500  0.500
     eigenvectors (columns):
       1.000  0.000  0.000
       0.000  1.000  0.000
       0.000  0.000  1.000
     occupation matrix ns (before diag.):
       0.500  0.000  0.000
       0.000  0.500  0.000
       0.000  0.000  0.500
     ------------------------ ATOM   70 ------------------------
     Tr[ns( 70)] =   3.00000
     eigenvalues:
       0.500  0.500  0.500
     eigenvectors (columns):
       1.000  0.000  0.000
       0.000  1.000  0.000
       0.000  0.000  1.000
     occupation matrix ns (before diag.):
       0.500  0.000  0.000
       0.000  0.500  0.000
       0.000  0.000  0.500
     ------------------------ ATOM   71 ------------------------
     Tr[ns( 71)] =   3.00000
     eigenvalues:
       0.500  0.500  0.500
     eigenvectors (columns):
       1.000  0.000  0.000
       0.000  1.000  0.000
       0.000  0.000  1.000
     occupation matrix ns (before diag.):
       0.500  0.000  0.000
       0.000  0.500  0.000
       0.000  0.000  0.500
     ------------------------ ATOM   72 ------------------------
     Tr[ns( 72)] =   3.00000
     eigenvalues:
       0.500  0.500  0.500
     eigenvectors (columns):
       1.000  0.000  0.000
       0.000  1.000  0.000
       0.000  0.000  1.000
     occupation matrix ns (before diag.):
       0.500  0.000  0.000
       0.000  0.500  0.000
       0.000  0.000  0.500
     ------------------------ ATOM   73 ------------------------
     Tr[ns( 73)] =   1.00000
     eigenvalues:
       0.167  0.167  0.167
     eigenvectors (columns):
       1.000  0.000  0.000
       0.000  1.000  0.000
       0.000  0.000  1.000
     occupation matrix ns (before diag.):
       0.167  0.000  0.000
       0.000  0.167  0.000
       0.000  0.000  0.167
     ------------------------ ATOM   74 ------------------------
     Tr[ns( 74)] =   1.00000
     eigenvalues:
       0.167  0.167  0.167
     eigenvectors (columns):
       1.000  0.000  0.000
       0.000  1.000  0.000
       0.000  0.000  1.000
     occupation matrix ns (before diag.):
       0.167  0.000  0.000
       0.000  0.167  0.000
       0.000  0.000  0.167
     ------------------------ ATOM   75 ------------------------
     Tr[ns( 75)] =   1.00000
     eigenvalues:
       0.167  0.167  0.167
     eigenvectors (columns):
       1.000  0.000  0.000
       0.000  1.000  0.000
       0.000  0.000  1.000
     occupation matrix ns (before diag.):
       0.167  0.000  0.000
       0.000  0.167  0.000
       0.000  0.000  0.167
     ------------------------ ATOM   76 ------------------------
     Tr[ns( 76)] =   1.00000
     eigenvalues:
       0.167  0.167  0.167
     eigenvectors (columns):
       1.000  0.000  0.000
       0.000  1.000  0.000
       0.000  0.000  1.000
     occupation matrix ns (before diag.):
       0.167  0.000  0.000
       0.000  0.167  0.000
       0.000  0.000  0.167
     ------------------------ ATOM   77 ------------------------
     Tr[ns( 77)] =   3.00000
     eigenvalues:
       0.500  0.500  0.500
     eigenvectors (columns):
       1.000  0.000  0.000
       0.000  1.000  0.000
       0.000  0.000  1.000
     occupation matrix ns (before diag.):
       0.500  0.000  0.000
       0.000  0.500  0.000
       0.000  0.000  0.500
     ------------------------ ATOM   78 ------------------------
     Tr[ns( 78)] =   3.00000
     eigenvalues:
       0.500  0.500  0.500
     eigenvectors (columns):
       1.000  0.000  0.000
       0.000  1.000  0.000
       0.000  0.000  1.000
     occupation matrix ns (before diag.):
       0.500  0.000  0.000
       0.000  0.500  0.000
       0.000  0.000  0.500
     ------------------------ ATOM   79 ------------------------
     Tr[ns( 79)] =   3.00000
     eigenvalues:
       0.500  0.500  0.500
     eigenvectors (columns):
       1.000  0.000  0.000
       0.000  1.000  0.000
       0.000  0.000  1.000
     occupation matrix ns (before diag.):
       0.500  0.000  0.000
       0.000  0.500  0.000
       0.000  0.000  0.500
     ------------------------ ATOM   80 ------------------------
     Tr[ns( 80)] =   3.00000
     eigenvalues:
       0.500  0.500  0.500
     eigenvectors (columns):
       1.000  0.000  0.000
       0.000  1.000  0.000
       0.000  0.000  1.000
     occupation matrix ns (before diag.):
       0.500  0.000  0.000
       0.000  0.500  0.000
       0.000  0.000  0.500
     ------------------------ ATOM   81 ------------------------
     Tr[ns( 81)] =   1.00000
     eigenvalues:
       0.167  0.167  0.167
     eigenvectors (columns):
       1.000  0.000  0.000
       0.000  1.000  0.000
       0.000  0.000  1.000
     occupation matrix ns (before diag.):
       0.167  0.000  0.000
       0.000  0.167  0.000
       0.000  0.000  0.167
     ------------------------ ATOM   82 ------------------------
     Tr[ns( 82)] =   1.00000
     eigenvalues:
       0.167  0.167  0.167
     eigenvectors (columns):
       1.000  0.000  0.000
       0.000  1.000  0.000
       0.000  0.000  1.000
     occupation matrix ns (before diag.):
       0.167  0.000  0.000
       0.000  0.167  0.000
       0.000  0.000  0.167
     ------------------------ ATOM   83 ------------------------
     Tr[ns( 83)] =   1.00000
     eigenvalues:
       0.167  0.167  0.167
     eigenvectors (columns):
       1.000  0.000  0.000
       0.000  1.000  0.000
       0.000  0.000  1.000
     occupation matrix ns (before diag.):
       0.167  0.000  0.000
       0.000  0.167  0.000
       0.000  0.000  0.167
     ------------------------ ATOM   84 ------------------------
     Tr[ns( 84)] =   1.00000
     eigenvalues:
       0.167  0.167  0.167
     eigenvectors (columns):
       1.000  0.000  0.000
       0.000  1.000  0.000
       0.000  0.000  1.000
     occupation matrix ns (before diag.):
       0.167  0.000  0.000
       0.000  0.167  0.000
       0.000  0.000  0.167
     ------------------------ ATOM   85 ------------------------
     Tr[ns( 85)] =   3.00000
     eigenvalues:
       0.500  0.500  0.500
     eigenvectors (columns):
       1.000  0.000  0.000
       0.000  1.000  0.000
       0.000  0.000  1.000
     occupation matrix ns (before diag.):
       0.500  0.000  0.000
       0.000  0.500  0.000
       0.000  0.000  0.500
     ------------------------ ATOM   86 ------------------------
     Tr[ns( 86)] =   3.00000
     eigenvalues:
       0.500  0.500  0.500
     eigenvectors (columns):
       1.000  0.000  0.000
       0.000  1.000  0.000
       0.000  0.000  1.000
     occupation matrix ns (before diag.):
       0.500  0.000  0.000
       0.000  0.500  0.000
       0.000  0.000  0.500
     ------------------------ ATOM   87 ------------------------
     Tr[ns( 87)] =   3.00000
     eigenvalues:
       0.500  0.500  0.500
     eigenvectors (columns):
       1.000  0.000  0.000
       0.000  1.000  0.000
       0.000  0.000  1.000
     occupation matrix ns (before diag.):
       0.500  0.000  0.000
       0.000  0.500  0.000
       0.000  0.000  0.500
     ------------------------ ATOM   88 ------------------------
     Tr[ns( 88)] =   3.00000
     eigenvalues:
       0.500  0.500  0.500
     eigenvectors (columns):
       1.000  0.000  0.000
       0.000  1.000  0.000
       0.000  0.000  1.000
     occupation matrix ns (before diag.):
       0.500  0.000  0.000
       0.000  0.500  0.000
       0.000  0.000  0.500
     ------------------------ ATOM   89 ------------------------
     Tr[ns( 89)] =   1.00000
     eigenvalues:
       0.167  0.167  0.167
     eigenvectors (columns):
       1.000  0.000  0.000
       0.000  1.000  0.000
       0.000  0.000  1.000
     occupation matrix ns (before diag.):
       0.167  0.000  0.000
       0.000  0.167  0.000
       0.000  0.000  0.167
     ------------------------ ATOM   90 ------------------------
     Tr[ns( 90)] =   1.00000
     eigenvalues:
       0.167  0.167  0.167
     eigenvectors (columns):
       1.000  0.000  0.000
       0.000  1.000  0.000
       0.000  0.000  1.000
     occupation matrix ns (before diag.):
       0.167  0.000  0.000
       0.000  0.167  0.000
       0.000  0.000  0.167
     ------------------------ ATOM   91 ------------------------
     Tr[ns( 91)] =   1.00000
     eigenvalues:
       0.167  0.167  0.167
     eigenvectors (columns):
       1.000  0.000  0.000
       0.000  1.000  0.000
       0.000  0.000  1.000
     occupation matrix ns (before diag.):
       0.167  0.000  0.000
       0.000  0.167  0.000
       0.000  0.000  0.167
     ------------------------ ATOM   92 ------------------------
     Tr[ns( 92)] =   1.00000
     eigenvalues:
       0.167  0.167  0.167
     eigenvectors (columns):
       1.000  0.000  0.000
       0.000  1.000  0.000
       0.000  0.000  1.000
     occupation matrix ns (before diag.):
       0.167  0.000  0.000
       0.000  0.167  0.000
       0.000  0.000  0.167
     ------------------------ ATOM   93 ------------------------
     Tr[ns( 93)] =   3.00000
     eigenvalues:
       0.500  0.500  0.500
     eigenvectors (columns):
       1.000  0.000  0.000
       0.000  1.000  0.000
       0.000  0.000  1.000
     occupation matrix ns (before diag.):
       0.500  0.000  0.000
       0.000  0.500  0.000
       0.000  0.000  0.500
     ------------------------ ATOM   94 ------------------------
     Tr[ns( 94)] =   3.00000
     eigenvalues:
       0.500  0.500  0.500
     eigenvectors (columns):
       1.000  0.000  0.000
       0.000  1.000  0.000
       0.000  0.000  1.000
     occupation matrix ns (before diag.):
       0.500  0.000  0.000
       0.000  0.500  0.000
       0.000  0.000  0.500
     ------------------------ ATOM   95 ------------------------
     Tr[ns( 95)] =   3.00000
     eigenvalues:
       0.500  0.500  0.500
     eigenvectors (columns):
       1.000  0.000  0.000
       0.000  1.000  0.000
       0.000  0.000  1.000
     occupation matrix ns (before diag.):
       0.500  0.000  0.000
       0.000  0.500  0.000
       0.000  0.000  0.500
     ------------------------ ATOM   96 ------------------------
     Tr[ns( 96)] =   3.00000
     eigenvalues:
       0.500  0.500  0.500
     eigenvectors (columns):
       1.000  0.000  0.000
       0.000  1.000  0.000
       0.000  0.000  1.000
     occupation matrix ns (before diag.):
       0.500  0.000  0.000
       0.000  0.500  0.000
       0.000  0.000  0.500
     ------------------------ ATOM   97 ------------------------
     Tr[ns( 97)] =   1.00000
     eigenvalues:
       0.167  0.167  0.167
     eigenvectors (columns):
       1.000  0.000  0.000
       0.000  1.000  0.000
       0.000  0.000  1.000
     occupation matrix ns (before diag.):
       0.167  0.000  0.000
       0.000  0.167  0.000
       0.000  0.000  0.167
     ------------------------ ATOM   98 ------------------------
     Tr[ns( 98)] =   1.00000
     eigenvalues:
       0.167  0.167  0.167
     eigenvectors (columns):
       1.000  0.000  0.000
       0.000  1.000  0.000
       0.000  0.000  1.000
     occupation matrix ns (before diag.):
       0.167  0.000  0.000
       0.000  0.167  0.000
       0.000  0.000  0.167
     ------------------------ ATOM   99 ------------------------
     Tr[ns( 99)] =   1.00000
     eigenvalues:
       0.167  0.167  0.167
     eigenvectors (columns):
       1.000  0.000  0.000
       0.000  1.000  0.000
       0.000  0.000  1.000
     occupation matrix ns (before diag.):
       0.167  0.000  0.000
       0.000  0.167  0.000
       0.000  0.000  0.167
     ------------------------ ATOM  100 ------------------------
     Tr[ns(100)] =   1.00000
     eigenvalues:
       0.167  0.167  0.167
     eigenvectors (columns):
       1.000  0.000  0.000
       0.000  1.000  0.000
       0.000  0.000  1.000
     occupation matrix ns (before diag.):
       0.167  0.000  0.000
       0.000  0.167  0.000
       0.000  0.000  0.167
     ------------------------ ATOM  101 ------------------------
     Tr[ns(101)] =   3.00000
     eigenvalues:
       0.500  0.500  0.500
     eigenvectors (columns):
       1.000  0.000  0.000
       0.000  1.000  0.000
       0.000  0.000  1.000
     occupation matrix ns (before diag.):
       0.500  0.000  0.000
       0.000  0.500  0.000
       0.000  0.000  0.500
     ------------------------ ATOM  102 ------------------------
     Tr[ns(102)] =   3.00000
     eigenvalues:
       0.500  0.500  0.500
     eigenvectors (columns):
       1.000  0.000  0.000
       0.000  1.000  0.000
       0.000  0.000  1.000
     occupation matrix ns (before diag.):
       0.500  0.000  0.000
       0.000  0.500  0.000
       0.000  0.000  0.500
     ------------------------ ATOM  103 ------------------------
     Tr[ns(103)] =   3.00000
     eigenvalues:
       0.500  0.500  0.500
     eigenvectors (columns):
       1.000  0.000  0.000
       0.000  1.000  0.000
       0.000  0.000  1.000
     occupation matrix ns (before diag.):
       0.500  0.000  0.000
       0.000  0.500  0.000
       0.000  0.000  0.500
     ------------------------ ATOM  104 ------------------------
     Tr[ns(104)] =   3.00000
     eigenvalues:
       0.500  0.500  0.500
     eigenvectors (columns):
       1.000  0.000  0.000
       0.000  1.000  0.000
       0.000  0.000  1.000
     occupation matrix ns (before diag.):
       0.500  0.000  0.000
       0.000  0.500  0.000
       0.000  0.000  0.500
     ------------------------ ATOM  105 ------------------------
     Tr[ns(105)] =   1.00000
     eigenvalues:
       0.167  0.167  0.167
     eigenvectors (columns):
       1.000  0.000  0.000
       0.000  1.000  0.000
       0.000  0.000  1.000
     occupation matrix ns (before diag.):
       0.167  0.000  0.000
       0.000  0.167  0.000
       0.000  0.000  0.167
     ------------------------ ATOM  106 ------------------------
     Tr[ns(106)] =   1.00000
     eigenvalues:
       0.167  0.167  0.167
     eigenvectors (columns):
       1.000  0.000  0.000
       0.000  1.000  0.000
       0.000  0.000  1.000
     occupation matrix ns (before diag.):
       0.167  0.000  0.000
       0.000  0.167  0.000
       0.000  0.000  0.167
     ------------------------ ATOM  107 ------------------------
     Tr[ns(107)] =   1.00000
     eigenvalues:
       0.167  0.167  0.167
     eigenvectors (columns):
       1.000  0.000  0.000
       0.000  1.000  0.000
       0.000  0.000  1.000
     occupation matrix ns (before diag.):
       0.167  0.000  0.000
       0.000  0.167  0.000
       0.000  0.000  0.167
     ------------------------ ATOM  108 ------------------------
     Tr[ns(108)] =   1.00000
     eigenvalues:
       0.167  0.167  0.167
     eigenvectors (columns):
       1.000  0.000  0.000
       0.000  1.000  0.000
       0.000  0.000  1.000
     occupation matrix ns (before diag.):
       0.167  0.000  0.000
       0.000  0.167  0.000
       0.000  0.000  0.167
     ------------------------ ATOM  109 ------------------------
     Tr[ns(109)] =   3.00000
     eigenvalues:
       0.500  0.500  0.500
     eigenvectors (columns):
       1.000  0.000  0.000
       0.000  1.000  0.000
       0.000  0.000  1.000
     occupation matrix ns (before diag.):
       0.500  0.000  0.000
       0.000  0.500  0.000
       0.000  0.000  0.500
     ------------------------ ATOM  110 ------------------------
     Tr[ns(110)] =   3.00000
     eigenvalues:
       0.500  0.500  0.500
     eigenvectors (columns):
       1.000  0.000  0.000
       0.000  1.000  0.000
       0.000  0.000  1.000
     occupation matrix ns (before diag.):
       0.500  0.000  0.000
       0.000  0.500  0.000
       0.000  0.000  0.500
     ------------------------ ATOM  111 ------------------------
     Tr[ns(111)] =   3.00000
     eigenvalues:
       0.500  0.500  0.500
     eigenvectors (columns):
       1.000  0.000  0.000
       0.000  1.000  0.000
       0.000  0.000  1.000
     occupation matrix ns (before diag.):
       0.500  0.000  0.000
       0.000  0.500  0.000
       0.000  0.000  0.500
     ------------------------ ATOM  112 ------------------------
     Tr[ns(112)] =   3.00000
     eigenvalues:
       0.500  0.500  0.500
     eigenvectors (columns):
       1.000  0.000  0.000
       0.000  1.000  0.000
       0.000  0.000  1.000
     occupation matrix ns (before diag.):
       0.500  0.000  0.000
       0.000  0.500  0.000
       0.000  0.000  0.500
     ------------------------ ATOM  113 ------------------------
     Tr[ns(113)] =   1.00000
     eigenvalues:
       0.167  0.167  0.167
     eigenvectors (columns):
       1.000  0.000  0.000
       0.000  1.000  0.000
       0.000  0.000  1.000
     occupation matrix ns (before diag.):
       0.167  0.000  0.000
       0.000  0.167  0.000
       0.000  0.000  0.167
     ------------------------ ATOM  114 ------------------------
     Tr[ns(114)] =   1.00000
     eigenvalues:
       0.167  0.167  0.167
     eigenvectors (columns):
       1.000  0.000  0.000
       0.000  1.000  0.000
       0.000  0.000  1.000
     occupation matrix ns (before diag.):
       0.167  0.000  0.000
       0.000  0.167  0.000
       0.000  0.000  0.167
     ------------------------ ATOM  115 ------------------------
     Tr[ns(115)] =   1.00000
     eigenvalues:
       0.167  0.167  0.167
     eigenvectors (columns):
       1.000  0.000  0.000
       0.000  1.000  0.000
       0.000  0.000  1.000
     occupation matrix ns (before diag.):
       0.167  0.000  0.000
       0.000  0.167  0.000
       0.000  0.000  0.167
     ------------------------ ATOM  116 ------------------------
     Tr[ns(116)] =   1.00000
     eigenvalues:
       0.167  0.167  0.167
     eigenvectors (columns):
       1.000  0.000  0.000
       0.000  1.000  0.000
       0.000  0.000  1.000
     occupation matrix ns (before diag.):
       0.167  0.000  0.000
       0.000  0.167  0.000
       0.000  0.000  0.167
     ------------------------ ATOM  117 ------------------------
     Tr[ns(117)] =   3.00000
     eigenvalues:
       0.500  0.500  0.500
     eigenvectors (columns):
       1.000  0.000  0.000
       0.000  1.000  0.000
       0.000  0.000  1.000
     occupation matrix ns (before diag.):
       0.500  0.000  0.000
       0.000  0.500  0.000
       0.000  0.000  0.500
     ------------------------ ATOM  118 ------------------------
     Tr[ns(118)] =   3.00000
     eigenvalues:
       0.500  0.500  0.500
     eigenvectors (columns):
       1.000  0.000  0.000
       0.000  1.000  0.000
       0.000  0.000  1.000
     occupation matrix ns (before diag.):
       0.500  0.000  0.000
       0.000  0.500  0.000
       0.000  0.000  0.500
     ------------------------ ATOM  119 ------------------------
     Tr[ns(119)] =   3.00000
     eigenvalues:
       0.500  0.500  0.500
     eigenvectors (columns):
       1.000  0.000  0.000
       0.000  1.000  0.000
       0.000  0.000  1.000
     occupation matrix ns (before diag.):
       0.500  0.000  0.000
       0.000  0.500  0.000
       0.000  0.000  0.500
     ------------------------ ATOM  120 ------------------------
     Tr[ns(120)] =   3.00000
     eigenvalues:
       0.500  0.500  0.500
     eigenvectors (columns):
       1.000  0.000  0.000
       0.000  1.000  0.000
       0.000  0.000  1.000
     occupation matrix ns (before diag.):
       0.500  0.000  0.000
       0.000  0.500  0.000
       0.000  0.000  0.500
     ------------------------ ATOM  121 ------------------------
     Tr[ns(121)] =   1.00000
     eigenvalues:
       0.167  0.167  0.167
     eigenvectors (columns):
       1.000  0.000  0.000
       0.000  1.000  0.000
       0.000  0.000  1.000
     occupation matrix ns (before diag.):
       0.167  0.000  0.000
       0.000  0.167  0.000
       0.000  0.000  0.167
     ------------------------ ATOM  122 ------------------------
     Tr[ns(122)] =   1.00000
     eigenvalues:
       0.167  0.167  0.167
     eigenvectors (columns):
       1.000  0.000  0.000
       0.000  1.000  0.000
       0.000  0.000  1.000
     occupation matrix ns (before diag.):
       0.167  0.000  0.000
       0.000  0.167  0.000
       0.000  0.000  0.167
     ------------------------ ATOM  123 ------------------------
     Tr[ns(123)] =   1.00000
     eigenvalues:
       0.167  0.167  0.167
     eigenvectors (columns):
       1.000  0.000  0.000
       0.000  1.000  0.000
       0.000  0.000  1.000
     occupation matrix ns (before diag.):
       0.167  0.000  0.000
       0.000  0.167  0.000
       0.000  0.000  0.167
     ------------------------ ATOM  124 ------------------------
     Tr[ns(124)] =   1.00000
     eigenvalues:
       0.167  0.167  0.167
     eigenvectors (columns):
       1.000  0.000  0.000
       0.000  1.000  0.000
       0.000  0.000  1.000
     occupation matrix ns (before diag.):
       0.167  0.000  0.000
       0.000  0.167  0.000
       0.000  0.000  0.167
     ------------------------ ATOM  125 ------------------------
     Tr[ns(125)] =   3.00000
     eigenvalues:
       0.500  0.500  0.500
     eigenvectors (columns):
       1.000  0.000  0.000
       0.000  1.000  0.000
       0.000  0.000  1.000
     occupation matrix ns (before diag.):
       0.500  0.000  0.000
       0.000  0.500  0.000
       0.000  0.000  0.500
     ------------------------ ATOM  126 ------------------------
     Tr[ns(126)] =   3.00000
     eigenvalues:
       0.500  0.500  0.500
     eigenvectors (columns):
       1.000  0.000  0.000
       0.000  1.000  0.000
       0.000  0.000  1.000
     occupation matrix ns (before diag.):
       0.500  0.000  0.000
       0.000  0.500  0.000
       0.000  0.000  0.500
     ------------------------ ATOM  127 ------------------------
     Tr[ns(127)] =   3.00000
     eigenvalues:
       0.500  0.500  0.500
     eigenvectors (columns):
       1.000  0.000  0.000
       0.000  1.000  0.000
       0.000  0.000  1.000
     occupation matrix ns (before diag.):
       0.500  0.000  0.000
       0.000  0.500  0.000
       0.000  0.000  0.500
     ------------------------ ATOM  128 ------------------------
     Tr[ns(128)] =   3.00000
     eigenvalues:
       0.500  0.500  0.500
     eigenvectors (columns):
       1.000  0.000  0.000
       0.000  1.000  0.000
       0.000  0.000  1.000
     occupation matrix ns (before diag.):
       0.500  0.000  0.000
       0.000  0.500  0.000
       0.000  0.000  0.500
     ------------------------ ATOM  129 ------------------------
     Tr[ns(129)] =   1.00000
     eigenvalues:
       0.167  0.167  0.167
     eigenvectors (columns):
       1.000  0.000  0.000
       0.000  1.000  0.000
       0.000  0.000  1.000
     occupation matrix ns (before diag.):
       0.167  0.000  0.000
       0.000  0.167  0.000
       0.000  0.000  0.167
     ------------------------ ATOM  130 ------------------------
     Tr[ns(130)] =   1.00000
     eigenvalues:
       0.167  0.167  0.167
     eigenvectors (columns):
       1.000  0.000  0.000
       0.000  1.000  0.000
       0.000  0.000  1.000
     occupation matrix ns (before diag.):
       0.167  0.000  0.000
       0.000  0.167  0.000
       0.000  0.000  0.167
     ------------------------ ATOM  131 ------------------------
     Tr[ns(131)] =   1.00000
     eigenvalues:
       0.167  0.167  0.167
     eigenvectors (columns):
       1.000  0.000  0.000
       0.000  1.000  0.000
       0.000  0.000  1.000
     occupation matrix ns (before diag.):
       0.167  0.000  0.000
       0.000  0.167  0.000
       0.000  0.000  0.167
     ------------------------ ATOM  132 ------------------------
     Tr[ns(132)] =   1.00000
     eigenvalues:
       0.167  0.167  0.167
     eigenvectors (columns):
       1.000  0.000  0.000
       0.000  1.000  0.000
       0.000  0.000  1.000
     occupation matrix ns (before diag.):
       0.167  0.000  0.000
       0.000  0.167  0.000
       0.000  0.000  0.167
     ------------------------ ATOM  133 ------------------------
     Tr[ns(133)] =   3.00000
     eigenvalues:
       0.500  0.500  0.500
     eigenvectors (columns):
       1.000  0.000  0.000
       0.000  1.000  0.000
       0.000  0.000  1.000
     occupation matrix ns (before diag.):
       0.500  0.000  0.000
       0.000  0.500  0.000
       0.000  0.000  0.500
     ------------------------ ATOM  134 ------------------------
     Tr[ns(134)] =   3.00000
     eigenvalues:
       0.500  0.500  0.500
     eigenvectors (columns):
       1.000  0.000  0.000
       0.000  1.000  0.000
       0.000  0.000  1.000
     occupation matrix ns (before diag.):
       0.500  0.000  0.000
       0.000  0.500  0.000
       0.000  0.000  0.500
     ------------------------ ATOM  135 ------------------------
     Tr[ns(135)] =   3.00000
     eigenvalues:
       0.500  0.500  0.500
     eigenvectors (columns):
       1.000  0.000  0.000
       0.000  1.000  0.000
       0.000  0.000  1.000
     occupation matrix ns (before diag.):
       0.500  0.000  0.000
       0.000  0.500  0.000
       0.000  0.000  0.500
     ------------------------ ATOM  136 ------------------------
     Tr[ns(136)] =   3.00000
     eigenvalues:
       0.500  0.500  0.500
     eigenvectors (columns):
       1.000  0.000  0.000
       0.000  1.000  0.000
       0.000  0.000  1.000
     occupation matrix ns (before diag.):
       0.500  0.000  0.000
       0.000  0.500  0.000
       0.000  0.000  0.500
     ------------------------ ATOM  137 ------------------------
     Tr[ns(137)] =   1.00000
     eigenvalues:
       0.167  0.167  0.167
     eigenvectors (columns):
       1.000  0.000  0.000
       0.000  1.000  0.000
       0.000  0.000  1.000
     occupation matrix ns (before diag.):
       0.167  0.000  0.000
       0.000  0.167  0.000
       0.000  0.000  0.167
     ------------------------ ATOM  138 ------------------------
     Tr[ns(138)] =   1.00000
     eigenvalues:
       0.167  0.167  0.167
     eigenvectors (columns):
       1.000  0.000  0.000
       0.000  1.000  0.000
       0.000  0.000  1.000
     occupation matrix ns (before diag.):
       0.167  0.000  0.000
       0.000  0.167  0.000
       0.000  0.000  0.167
     ------------------------ ATOM  139 ------------------------
     Tr[ns(139)] =   1.00000
     eigenvalues:
       0.167  0.167  0.167
     eigenvectors (columns):
       1.000  0.000  0.000
       0.000  1.000  0.000
       0.000  0.000  1.000
     occupation matrix ns (before diag.):
       0.167  0.000  0.000
       0.000  0.167  0.000
       0.000  0.000  0.167
     ------------------------ ATOM  140 ------------------------
     Tr[ns(140)] =   1.00000
     eigenvalues:
       0.167  0.167  0.167
     eigenvectors (columns):
       1.000  0.000  0.000
       0.000  1.000  0.000
       0.000  0.000  1.000
     occupation matrix ns (before diag.):
       0.167  0.000  0.000
       0.000  0.167  0.000
       0.000  0.000  0.167
     ------------------------ ATOM  141 ------------------------
     Tr[ns(141)] =   3.00000
     eigenvalues:
       0.500  0.500  0.500
     eigenvectors (columns):
       1.000  0.000  0.000
       0.000  1.000  0.000
       0.000  0.000  1.000
     occupation matrix ns (before diag.):
       0.500  0.000  0.000
       0.000  0.500  0.000
       0.000  0.000  0.500
     ------------------------ ATOM  142 ------------------------
     Tr[ns(142)] =   3.00000
     eigenvalues:
       0.500  0.500  0.500
     eigenvectors (columns):
       1.000  0.000  0.000
       0.000  1.000  0.000
       0.000  0.000  1.000
     occupation matrix ns (before diag.):
       0.500  0.000  0.000
       0.000  0.500  0.000
       0.000  0.000  0.500
     ------------------------ ATOM  143 ------------------------
     Tr[ns(143)] =   3.00000
     eigenvalues:
       0.500  0.500  0.500
     eigenvectors (columns):
       1.000  0.000  0.000
       0.000  1.000  0.000
       0.000  0.000  1.000
     occupation matrix ns (before diag.):
       0.500  0.000  0.000
       0.000  0.500  0.000
       0.000  0.000  0.500
     ------------------------ ATOM  144 ------------------------
     Tr[ns(144)] =   3.00000
     eigenvalues:
       0.500  0.500  0.500
     eigenvectors (columns):
       1.000  0.000  0.000
       0.000  1.000  0.000
       0.000  0.000  1.000
     occupation matrix ns (before diag.):
       0.500  0.000  0.000
       0.000  0.500  0.000
       0.000  0.000  0.500
     ------------------------ ATOM  145 ------------------------
     Tr[ns(145)] =   1.00000
     eigenvalues:
       0.167  0.167  0.167
     eigenvectors (columns):
       1.000  0.000  0.000
       0.000  1.000  0.000
       0.000  0.000  1.000
     occupation matrix ns (before diag.):
       0.167  0.000  0.000
       0.000  0.167  0.000
       0.000  0.000  0.167
     ------------------------ ATOM  146 ------------------------
     Tr[ns(146)] =   1.00000
     eigenvalues:
       0.167  0.167  0.167
     eigenvectors (columns):
       1.000  0.000  0.000
       0.000  1.000  0.000
       0.000  0.000  1.000
     occupation matrix ns (before diag.):
       0.167  0.000  0.000
       0.000  0.167  0.000
       0.000  0.000  0.167
     ------------------------ ATOM  147 ------------------------
     Tr[ns(147)] =   1.00000
     eigenvalues:
       0.167  0.167  0.167
     eigenvectors (columns):
       1.000  0.000  0.000
       0.000  1.000  0.000
       0.000  0.000  1.000
     occupation matrix ns (before diag.):
       0.167  0.000  0.000
       0.000  0.167  0.000
       0.000  0.000  0.167
     ------------------------ ATOM  148 ------------------------
     Tr[ns(148)] =   1.00000
     eigenvalues:
       0.167  0.167  0.167
     eigenvectors (columns):
       1.000  0.000  0.000
       0.000  1.000  0.000
       0.000  0.000  1.000
     occupation matrix ns (before diag.):
       0.167  0.000  0.000
       0.000  0.167  0.000
       0.000  0.000  0.167
     ------------------------ ATOM  149 ------------------------
     Tr[ns(149)] =   3.00000
     eigenvalues:
       0.500  0.500  0.500
     eigenvectors (columns):
       1.000  0.000  0.000
       0.000  1.000  0.000
       0.000  0.000  1.000
     occupation matrix ns (before diag.):
       0.500  0.000  0.000
       0.000  0.500  0.000
       0.000  0.000  0.500
     ------------------------ ATOM  150 ------------------------
     Tr[ns(150)] =   3.00000
     eigenvalues:
       0.500  0.500  0.500
     eigenvectors (columns):
       1.000  0.000  0.000
       0.000  1.000  0.000
       0.000  0.000  1.000
     occupation matrix ns (before diag.):
       0.500  0.000  0.000
       0.000  0.500  0.000
       0.000  0.000  0.500
     ------------------------ ATOM  151 ------------------------
     Tr[ns(151)] =   3.00000
     eigenvalues:
       0.500  0.500  0.500
     eigenvectors (columns):
       1.000  0.000  0.000
       0.000  1.000  0.000
       0.000  0.000  1.000
     occupation matrix ns (before diag.):
       0.500  0.000  0.000
       0.000  0.500  0.000
       0.000  0.000  0.500
     ------------------------ ATOM  152 ------------------------
[...]
   -25.8990 -25.8984 -25.8984 -25.8981 -25.8979 -25.8978 -25.8974 -25.8973
   -25.8973 -25.8972 -25.8972 -25.8971 -25.8970 -25.8969 -25.8968 -25.8963
   -25.8961 -25.8959 -25.8957 -25.8956 -25.8955 -25.8955 -25.8955 -25.8954
   -25.8951 -25.8946 -25.8946 -25.8941 -25.8935 -25.8933 -25.8933 -25.8930
   -25.8929 -25.8925 -25.8920 -25.8918 -25.8917 -25.8916 -25.8914 -25.8914
   -25.8914 -25.8911 -25.8908 -25.8901 -25.8901 -25.8890 -25.8890 -25.8888
   -25.8887 -25.8886 -25.8876 -25.8874 -25.8863 -25.8859 -25.8841 -25.8840
   -25.8835 -25.8832 -25.8830 -25.8823 -25.8816 -25.8815 -25.8808 -25.8807
   -25.8804 -25.8773 -25.8737 -25.8720 -25.8699 -19.3868 -19.3781 -19.3716
   -19.3685 -19.3676 -19.3663 -19.3642 -19.3632 -19.3617 -19.3613 -19.3605
   -19.3596 -19.3589 -19.3583 -19.3583 -19.3577 -19.3576 -19.3573 -19.3572
   -19.3572 -19.3570 -19.3564 -19.3560 -19.3557 -19.3555 -19.3551 -19.3542
   -19.3539 -19.3531 -19.3515 -19.3506 -19.3501 -19.3498 -19.3496 -19.3493
   -19.3481 -19.3472 -19.3446 -19.3436 -19.3427 -19.3424 -19.3422 -19.3414
   -19.3407 -19.3394 -19.3391 -19.3390 -19.3387 -19.3386 -19.3376 -19.3372
   -19.3371 -19.3370 -19.3369 -19.3367 -19.3367 -19.3361 -19.3359 -19.3355
   -19.3353 -19.3351 -19.3350 -19.3347 -19.3346 -19.3343 -19.3343 -19.3341
   -19.3340 -19.3339 -19.3338 -19.3335 -19.3334 -19.3333 -19.3330 -19.3329
   -19.3328 -19.3326 -19.3323 -19.3312 -19.3308 -19.3304 -19.3303 -19.3297
   -19.3296 -19.3287 -19.3285 -19.3283 -19.3279 -19.3275 -19.3274 -19.3273
   -19.3262 -19.3261 -19.3256 -19.3250 -19.3248 -19.3245 -19.3244 -19.3240
   -19.3235 -19.3221 -19.3215 -19.3206 -19.3198 -19.3189 -19.3173 -19.3172
   -19.3158 -19.3150 -19.3149 -19.3137 -19.3136 -19.3135 -19.3128 -19.3126
   -19.3120 -19.3116 -19.3116 -19.3115 -19.3110 -19.3105 -19.3082 -19.3082
   -19.3081 -19.3072 -19.3066 -19.3058 -19.3056 -19.3011 -19.3007 -19.2994
   -19.2991 -19.2983 -19.2981 -19.2979  -7.2429  -7.2403  -7.2363  -7.2302
    -7.2279  -7.2276  -7.2252  -7.2244  -7.2229  -7.2190  -7.2151  -7.2146
    -7.2119  -7.2081  -7.2073  -7.2046  -7.2040  -7.2039  -7.2015  -7.2010
    -7.2005  -7.1984  -7.1979  -7.1973  -7.1968  -7.1960  -7.1946  -7.1940
    -7.1936  -7.1932  -7.1916  -7.1902  -7.1900  -7.1889  -7.1881  -7.1878
    -7.1869  -7.1865  -7.1857  -7.1854  -7.1847  -7.1834  -7.1818  -7.1807
    -7.1801  -7.1794  -7.1789  -7.1784  -7.1777  -7.1768  -7.1760  -7.1755
    -7.1741  -7.1733  -7.1713  -7.1709  -7.1697  -7.1690  -7.1685  -7.1682
    -7.1679  -7.1676  -7.1674  -7.1670  -7.1669  -7.1664  -7.1653  -7.1649
    -7.1647  -7.1641  -7.1639  -7.1631  -7.1623  -7.1619  -7.1611  -7.1605
    -7.1602  -7.1596  -7.1590  -7.1586  -7.1580  -7.1578  -7.1574  -7.1570
    -7.1568  -7.1561  -7.1550  -7.1543  -7.1541  -7.1532  -7.1526  -7.1522
    -7.1509  -7.1504  -7.1499  -7.1494  -7.1489  -7.1485  -7.1476  -7.1472
    -7.1465  -7.1464  -7.1459  -7.1457  -7.1452  -7.1451  -7.1449  -7.1440
    -7.1433  -7.1428  -7.1419  -7.1419  -7.1413  -7.1408  -7.1396  -7.1392
    -7.1383  -7.1378  -7.1377  -7.1372  -7.1366  -7.1361  -7.1354  -7.1349
    -7.1345  -7.1333  -7.1331  -7.1327  -7.1325  -7.1322  -7.1319  -7.1310
    -7.1307  -7.1296  -7.1292  -7.1292  -7.1284  -7.1284  -7.1282  -7.1276
    -7.1272  -7.1268  -7.1266  -7.1261  -7.1254  -7.1246  -7.1244  -7.1241
    -7.1238  -7.1234  -7.1225  -7.1221  -7.1218  -7.1215  -7.1210  -7.1206
    -7.1198  -7.1197  -7.1197  -7.1191  -7.1183  -7.1182  -7.1175  -7.1173
    -7.1168  -7.1162  -7.1155  -7.1152  -7.1144  -7.1140  -7.1138  -7.1133
    -7.1129  -7.1126  -7.1123  -7.1120  -7.1115  -7.1109  -7.1106  -7.1104
    -7.1101  -7.1099  -7.1094  -7.1092  -7.1080  -7.1078  -7.1074  -7.1071
    -7.1065  -7.1064  -7.1059  -7.1058  -7.1055  -7.1050  -7.1043  -7.1037
    -7.1035  -7.1033  -7.1030  -7.1026  -7.1020  -7.1018  -7.1012  -7.1011
    -7.1005  -7.1005  -7.1002  -7.0998  -7.0997  -7.0994  -7.0989  -7.0985
    -7.0983  -7.0976  -7.0975  -7.0973  -7.0966  -7.0964  -7.0959  -7.0957
    -7.0952  -7.0949  -7.0947  -7.0942  -7.0937  -7.0931  -7.0927  -7.0923
    -7.0918  -7.0916  -7.0914  -7.0907  -7.0907  -7.0899  -7.0897  -7.0892
    -7.0890  -7.0889  -7.0887  -7.0880  -7.0876  -7.0875  -7.0874  -7.0871
    -7.0867  -7.0864  -7.0861  -7.0856  -7.0854  -7.0849  -7.0844  -7.0844
    -7.0839  -7.0836  -7.0835  -7.0831  -7.0831  -7.0827  -7.0822  -7.0817
    -7.0811  -7.0807  -7.0805  -7.0801  -7.0796  -7.0793  -7.0788  -7.0786
    -7.0783  -7.0769  -7.0765  -7.0761  -7.0755  -7.0751  -7.0743  -7.0741
    -7.0738  -7.0736  -7.0733  -7.0728  -7.0724  -7.0721  -7.0721  -7.0717
    -7.0711  -7.0707  -7.0702  -7.0698  -7.0696  -7.0693  -7.0689  -7.0683
    -7.0681  -7.0677  -7.0675  -7.0671  -7.0669  -7.0664  -7.0661  -7.0659
    -7.0657  -7.0655  -7.0652  -7.0651  -7.0643  -7.0637  -7.0635  -7.0629
    -7.0624  -7.0618  -7.0614  -7.0609  -7.0602  -7.0599  -7.0596  -7.0591
    -7.0587  -7.0584  -7.0582  -7.0580  -7.0573  -7.0571  -7.0566  -7.0559
    -7.0559  -7.0552  -7.0551  -7.0545  -7.0542  -7.0542  -7.0539  -7.0535
    -7.0529  -7.0525  -7.0523  -7.0519  -7.0516  -7.0512  -7.0509  -7.0507
    -7.0505  -7.0502  -7.0500  -7.0494  -7.0494  -7.0485  -7.0484  -7.0482
    -7.0481  -7.0476  -7.0474  -7.0472  -7.0469  -7.0465  -7.0463  -7.0459
    -7.0458  -7.0453  -7.0451  -7.0446  -7.0443  -7.0432  -7.0429  -7.0427
    -7.0426  -7.0422  -7.0419  -7.0416  -7.0411  -7.0408  -7.0403  -7.0400
    -7.0398  -7.0391  -7.0390  -7.0387  -7.0386  -7.0380  -7.0379  -7.0376
    -7.0375  -7.0368  -7.0366  -7.0361  -7.0357  -7.0355  -7.0351  -7.0348
    -7.0343  -7.0341  -7.0337  -7.0329  -7.0326  -7.0324  -7.0321  -7.0317
    -7.0315  -7.0309  -7.0305  -7.0302  -7.0296  -7.0287  -7.0284  -7.0280
    -7.0273  -7.0272  -7.0270  -7.0267  -7.0259  -7.0258  -7.0248  -7.0245
    -7.0241  -7.0238  -7.0233  -7.0231  -7.0225  -7.0224  -7.0220  -7.0216
    -7.0209  -7.0205  -7.0199  -7.0198  -7.0196  -7.0190  -7.0186  -7.0184
    -7.0180  -7.0179  -7.0175  -7.0166  -7.0166  -7.0159  -7.0158  -7.0150
    -7.0140  -7.0137  -7.0132  -7.0126  -7.0123  -7.0119  -7.0114  -7.0109
    -7.0105  -7.0092  -7.0089  -7.0082  -7.0081  -7.0071  -7.0065  -7.0063
    -7.0060  -7.0057  -7.0052  -7.0046  -7.0045  -7.0043  -7.0040  -7.0032
    -7.0023  -7.0020  -7.0016  -6.9999  -6.9998  -6.9991  -6.9984  -6.9976
    -6.9970  -6.9964  -6.9962  -6.9958  -6.9955  -6.9950  -6.9945  -6.9939
    -6.9931  -6.9919  -6.9917  -6.9912  -6.9906  -6.9891  -6.9885  -6.9879
    -6.9870  -6.9867  -6.9862  -6.9859  -6.9856  -6.9850  -6.9845  -6.9841
    -6.9830  -6.9827  -6.9820  -6.9818  -6.9806  -6.9798  -6.9789  -6.9774
    -6.9772  -6.9768  -6.9754  -6.9752  -6.9749  -6.9745  -6.9740  -6.9733
    -6.9729  -6.9725  -6.9723  -6.9711  -6.9686  -6.9680  -6.9675  -6.9663
    -6.9655  -6.9652  -6.9622  -6.9615  -6.9595  -6.9587  -6.9568  -6.9549
    -6.9526  -6.9523  -6.9506  -6.9476  -6.9466  -6.9450  -6.9360  -6.9336
    -6.9328  -6.9292  -6.9270  -6.9269  -6.9247  -6.9211  -6.9092  -6.9078
    -3.6047  -3.5885  -3.5372  -3.5036  -3.3453  -3.3117  -3.3022  -3.2623
    -3.2327  -3.2051  -3.1942  -3.1819  -3.0488  -3.0323  -3.0076  -2.9904
    -2.9738  -2.9471  -2.9141  -2.8446  -2.8032  -2.7941  -2.7778  -2.7686
    -2.7482  -2.7359  -2.7262  -2.7118  -2.6864  -2.6509  -2.6396  -2.6125
    -2.5836  -2.5517  -2.5284  -2.5035  -2.4722  -2.4576  -2.4429  -2.4313
    -2.4241  -2.4097  -2.3918  -2.3677  -2.3317  -2.3189  -2.2922  -2.2637
    -2.2555  -2.2279  -2.2147  -2.2082  -2.1900  -2.1261  -2.1197  -2.1055
    -1.9747  -1.9485  -1.9321  -1.9209  -1.9093  -1.8924  -1.8581  -1.8525
    -1.8345  -1.8249  -1.8032  -1.7849  -1.7720  -1.7480  -1.7389  -1.7308
    -1.7085  -1.6964  -1.6654  -1.6545  -1.6346  -1.6177  -1.5572  -1.5184
    -1.5135  -1.5054  -1.4533  -1.4336  -1.4132  -1.3931  -1.3767  -1.3412
    -1.3129  -1.2699  -1.2603  -1.2568  -1.2314  -1.1931  -1.1830  -1.1489
    -1.1268  -1.0488  -1.0048  -0.9934  -0.9813  -0.9465  -0.9408  -0.8922
    -0.8747  -0.8111  -0.7914  -0.7651  -0.4764  -0.3837  -0.3607  -0.3142
     0.0597   0.0760   0.0901   0.0965   0.1086   0.1110   0.1285   0.1383
     0.1573   0.1632   0.1738   0.1895   0.1944   0.1951   0.2118   0.2150
     0.2240   0.2378   0.2398   0.2480   0.2588   0.2783   0.2901   0.3063
     0.3271   0.3397   0.3484   0.3626   0.3736   0.3772   0.3942   0.4169
     0.4191   0.4289   0.4431   0.4555   0.4903   0.5128   0.5224   0.5449
     0.5697   0.6227   0.6352   0.6894   0.6952   0.7062   0.7288   0.7617
     0.8021   0.8127   0.8328   0.8720   0.9185   0.9618   1.0150   1.0420
     1.3188   1.3648   1.3708   1.4079   1.4371   1.4609   1.4712   1.5344
     1.5575   1.5808   1.5990   1.6495   1.6687   1.7079   1.7288   1.7686
     1.7733   1.8094   1.8301   1.8637   1.8768   1.8917   1.9083   1.9429
     1.9700   2.0334   2.0625   2.1018   2.7977   2.8821   2.9025   2.9248
     2.9322   2.9876   3.0040   3.0232   3.0249   3.0335   3.0380   3.0470
     3.0662   3.0934   3.1171   3.1320   3.3105   3.3147   3.3224   3.3358
     3.3443   3.3666   3.3813   3.3935   3.4026   3.4058   3.4260   3.4439
     3.4692   3.4857   3.4943   3.4987   3.5302   3.5522   3.5588   3.5837
     3.5970   3.6054   3.6125   3.6374   3.6519   3.6607   3.6804   3.6926
     3.7165   3.7210   3.7311   3.7470   3.7685   3.7754   3.7850   3.7938
     3.8064   3.8227   3.8292   3.8437   3.8662   3.8718   3.8794   3.8967
     3.9250   3.9525   3.9676   4.0046   4.1907   4.2248   4.2442   4.2771
     4.3048   4.3344   4.3656   4.3880   4.4186   4.4378   4.4507   4.4589
     4.4662   4.4785   4.4971   4.5131   4.5301   4.5398   4.5422   4.5581
     4.5719   4.5842   4.6054   4.6121   4.6267   4.6333   4.6447   4.6530
     4.6602   4.6719   4.6893   4.7078   4.7235   4.7347   4.7592   4.7838
     4.7880   4.8025   4.8229   4.8520   4.8533   4.8757   4.8862   4.8936
     4.9046   4.9182   4.9271   4.9350   4.9606   4.9700   4.9914   5.0050
     5.0159   5.0241   5.0318   5.0525   5.0590   5.0854   5.0928   5.1072
     5.1290   5.1307   5.1440   5.1618   5.1793   5.1937   5.2006   5.2175
     5.2268   5.2666   5.2720   5.2855   5.2894   5.2987   5.3165   5.3287
     5.3330   5.3564   5.3768   5.3953   5.3977   5.4121   5.4427   5.4601
     5.4749   5.4781   5.4823   5.5049   5.5116   5.5219   5.5284   5.5438
     5.5679   5.5787   5.5870   5.6187   5.6217   5.6387   5.6498   5.6727
     5.7030   5.7166   5.7208   5.7428   5.7602   5.7660   5.7992   5.8035
     5.8129   5.8520   5.8678   5.8826   5.9188   5.9312   5.9457   6.0168
     6.0228   6.0386   6.0443   6.0716   6.0767   6.0816   6.1032   6.1364
     6.1435   6.1646   6.1722   6.1884   6.1973   6.2007   6.2436   6.2611
     6.2796   6.3085   6.3117   6.3286   6.3370   6.3743   6.3861   6.4051
     6.4450   6.4584   6.4700   6.4808   6.5014   6.5340   6.5512   6.5788
     6.6104   6.6258   6.6602   6.6832   6.6883   6.7083   6.7168   6.7274
     6.7508   6.7885   6.8082   6.8189   6.8403   6.8687   6.8805   6.9113
     6.9342   7.0002   7.0498   7.1289   7.4279   7.4571   7.5049   7.5620
     9.6290   9.6328   9.6624   9.6793   9.7006   9.7146   9.7452   9.7787
     9.8238   9.8421   9.8668   9.8986   9.9354   9.9576   9.9732   9.9824
     9.9917   9.9945  10.0130  10.0318  10.0414  10.0634  10.0707  10.0914
    10.0932  10.1094  10.1127  10.1194  10.1580  10.1829  10.2003  10.2054
    10.2581  10.2733  10.2876  10.3018  10.3106  10.3204  10.3526  10.3620
    10.3763  10.3916  10.3982  10.4136  10.4263  10.4317  10.4465  10.4517
    10.4606  10.4674  10.4797  10.4971  10.5092  10.5194  10.5372  10.5450
    10.5598  10.5738  10.5800  10.5949  10.6029  10.6217  10.6327  10.6464
    10.6643  10.6865  10.6922  10.6977  10.7201  10.7346  10.7413  10.7498
    10.7573  10.7621  10.7721  10.7767  10.7821  10.8016  10.8034  10.8098
    10.8140  10.8337  10.8457  10.8742  10.8920  10.9073  10.9158  10.9281
    10.9325  10.9371  10.9565  10.9663  10.9776  10.9874  10.9951  11.0040
    11.0145  11.0345  11.0353  11.0442  11.0617  11.0730  11.0775  11.1022
    11.1070  11.1178  11.1334  11.1807  11.4879  11.4971  11.5245  11.5310
    11.7171  11.7317  11.7546  11.7780  11.7862  11.8040  11.8206  11.8399
    11.8536  11.8614  11.8745  11.8776  11.8972  11.9052  11.9164  11.9277
    11.9597  11.9637  11.9857  11.9925  12.0057  12.0164  12.0367  12.0692
    12.0857  12.1133  12.1205  12.1412  12.1476  12.1548  12.1719  12.1792
    12.1890  12.1933  12.2055  12.2166  12.2352  12.2513  12.2593  12.2788
    12.4041  12.4291  12.4360  12.4433  12.4556  12.4608  12.4764  12.4939
    12.5019  12.5188  12.5238  12.5252  12.5321  12.5499  12.5705  12.5790
    12.6401  12.6659  12.6742  12.6810  12.6944  12.7023  12.7084  12.7282
    12.7340  12.7469  12.7620  12.7686  12.7721  12.7828  12.7856  12.8007
    12.8065  12.8175  12.8206  12.8293  12.8330  12.8437  12.8531  12.8584
    12.8661  12.8736  12.8810  12.8855  12.8898  12.9019  12.9124  12.9136
    12.9334  12.9386  12.9435  12.9487  12.9618  12.9706  12.9803  12.9872
    13.0037  13.0127  13.0231  13.0353  13.0434  13.0534  13.0648  13.0678
    13.0787  13.0877  13.0923  13.1153  13.1875  13.2310  13.2431  13.2474
    13.2641  13.2914  13.3105  13.3177  13.3923  13.4075  13.4214  13.4267
    13.4387  13.4483  13.4581  13.4708  13.4956  13.4970  13.5166  13.5349
    13.5398  13.5621  13.5770  13.5893  13.5958  13.6052  13.6191  13.6229
    13.6305  13.6465  13.6606  13.6654  13.6863  13.6905  13.7040  13.7122
    13.7214  13.7234  13.7299  13.7602  13.7656  13.7714  13.7765  13.7935
    13.8039  13.8112  13.8205  13.8264  13.8329  13.8436  13.8624  13.8680
    13.8782  13.8987  13.9193  13.9414  13.9459  13.9633  13.9730  13.9899
    13.9962  14.0141  14.0386  14.0566  14.1627  14.1804  14.1853  14.1890
    14.2068  14.2208  14.2336  14.2415  14.2505  14.2542  14.2616  14.2753
    14.2850  14.2881  14.2987  14.3087  14.3138  14.3217  14.3297  14.3350
    14.3368  14.3424  14.3584  14.3761  14.3782  14.3840  14.3917  14.3983
    14.4050  14.4142  14.4173  14.4388  14.4443  14.4573  14.4619  14.4776
    14.4880  14.4976  14.5157  14.5207  14.5279  14.5354  14.5457  14.5500
    14.5588  14.5694  14.5775  14.5792  14.5881  14.5962  14.6009  14.6107
    14.6265  14.6366  14.6405  14.6475  14.6615  14.6711  14.6844  14.6865
    14.6935  14.7096  14.7426  14.7462  14.7686  14.7899  14.8467  14.8569
    15.0371  15.0449  15.0731  15.0912  15.0958  15.1065  15.1318  15.1547
    15.2203  15.2619  15.2912  15.3110  15.3208  15.3560  15.3733  15.3906
    15.5307  15.5363  15.5536  15.5641  15.5900  15.6072  15.6133  15.6189
    15.6276  15.6435  15.6478  15.6865  15.6904  15.7110  15.7165  15.7573
    15.8504  15.8811  15.8925  15.9219  15.9240  15.9423  15.9478  15.9670
    15.9829  15.9848  15.9950  16.0041  16.0147  16.0315  16.0553  16.0648
    16.0786  16.1022  16.1097  16.1287  16.1344  16.1580  16.1722  16.1790
    16.2009  16.2170  16.2255  16.2489  16.2554  16.2645  16.2722  16.3023
    16.3061  16.3200  16.3336  16.3408  16.3518  16.3681  16.3737  16.4058
    16.4497  16.4604  16.4735  16.4934  16.5072  16.5290  16.5512  16.5589
    16.5712  16.5810  16.5907  16.5986  16.6218  16.6384  16.6475  16.6871
    16.7445  16.7514  16.7651  16.7858  16.8462  16.8585  16.8715  16.8863
    16.8936  16.9020  16.9209  16.9252  16.9411  16.9446  16.9465  16.9524
    16.9558  16.9730  16.9761  16.9863  16.9980  17.0044  17.0233  17.0372
    17.0528  17.0617  17.0668  17.0935  17.1672  17.1818  17.1945  17.1990
    17.2151  17.2232  17.2330  17.2451  17.2550  17.2697  17.2735  17.2828
    17.2944  17.3059  17.3114  17.3157  17.3311  17.3384  17.3435  17.3544
    17.3694  17.3705  17.3866  17.4097  17.4309  17.4331  17.4588  17.4674
    17.4759  17.4983  17.5025  17.5069  17.5273  17.5320  17.5366  17.5523
    17.5576  17.5616  17.5728  17.5790  17.5946  17.6038  17.6126  17.6205
    17.6338  17.6392  17.6480  17.6580  17.6705  17.6872  17.6950  17.7036
    17.7508  17.7785  17.7883  17.8048  17.8094  17.8226  17.8301  17.8341
    17.8489  17.8516  17.8657  17.8739  17.8764  17.8786  17.8959  17.9067
    17.9146  17.9215  17.9307  17.9474  17.9546  17.9615  17.9750  17.9849
    17.9918  17.9944  18.0069  18.0192  18.0294  18.0343  18.0539  18.0715
    18.0776  18.0816  18.0946  18.0960  18.1146  18.1200  18.1331  18.1391
    18.1403  18.1509  18.1796  18.1920  18.3070  18.3319  18.3375  18.3587
    18.3837  18.3960  18.4149  18.4200  18.4261  18.4461  18.4635  18.5008
    18.5075  18.5234  18.5339  18.5409  18.5476  18.5550  18.5613  18.5765
    18.5843  18.5885  18.6012  18.6039  18.6121  18.6174  18.6187  18.6320
    18.6390  18.6581  18.6643  18.6903  18.6962  18.7017  18.7267  18.7583
    18.7925  18.8264  18.8366  18.8691  18.8952  18.9152  18.9307  18.9407
    18.9651  18.9678  18.9800  18.9910  19.0024  19.0224  19.0277  19.0504
    19.0604  19.0939  19.1309  19.1419  19.1646  19.1731  19.2012  19.2337
    19.2672  19.2731  19.2945  19.3132  19.3245  19.3306  19.3533  19.3612
    19.4161  19.4390  19.4480  19.4563  19.4616  19.4723  19.4861  19.4912
    19.5090  19.5149  19.5291  19.5383  19.5410  19.5515  19.5650  19.5768

     highest occupied, lowest unoccupied level (ev):     7.6076    8.6951

!    total energy              =  -38619.25047062 Ry
     estimated scf accuracy    <       0.00000204 Ry

     The total energy is the sum of the following terms:
     one-electron contribution =  -20380.25994901 Ry
     hartree contribution      =   12192.94867875 Ry
     xc contribution           =   -9605.51307203 Ry
     ewald contribution        =  -20822.12732352 Ry
     Hubbard energy            =      -4.29880481 Ry

     convergence has been achieved in  12 iterations

     Writing all to output data dir ./tmp_In0.0Ga1.0As0.75Sb0.25_cube_3x3x3.7/In0.0Ga1.0As0.75Sb0.25_cube_3x3x3.7.save/ :
     XML data file, charge density, pseudopotentials, collected wavefunctions

     init_run     :    216.82s CPU    219.21s WALL (       1 calls)
     electrons    :   8037.87s CPU   8057.16s WALL (       1 calls)

     Called by init_run:
     wfcinit      :    207.21s CPU    209.23s WALL (       1 calls)
     potinit      :      2.06s CPU      2.11s WALL (       1 calls)
     hinit0       :      1.71s CPU      1.73s WALL (       1 calls)

     Called by electrons:
     c_bands      :   7783.75s CPU   7802.02s WALL (      13 calls)
     sum_band     :    249.22s CPU    249.66s WALL (      13 calls)
     v_of_rho     :      3.30s CPU      3.44s WALL (      13 calls)
     mix_rho      :      0.71s CPU      0.72s WALL (      13 calls)

     Called by c_bands:
     init_us_2    :     29.37s CPU     29.85s WALL (      28 calls)
     cegterg      :   7541.50s CPU   7558.39s WALL (      13 calls)

     Called by *egterg:
     cdiaghg      :    706.58s CPU    707.24s WALL (     103 calls)
     h_psi        :   4478.34s CPU   4487.80s WALL (     105 calls)
     g_psi        :      3.76s CPU      3.76s WALL (      91 calls)

     Called by h_psi:
     h_psi:calbec :    794.05s CPU    794.08s WALL (     105 calls)
     vloc_psi     :    614.74s CPU    616.00s WALL (     105 calls)
     add_vuspsi   :    777.26s CPU    779.91s WALL (     105 calls)
     vhpsi        :   2284.64s CPU   2284.76s WALL (     105 calls)

     General routines
     calbec       :   1006.76s CPU   1006.80s WALL (     224 calls)
     fft          :      3.00s CPU      3.14s WALL (     131 calls)
     ffts         :      0.18s CPU      0.18s WALL (      13 calls)
     fftw         :    621.12s CPU    622.47s WALL (  160196 calls)

     Parallel routines

     Hubbard U routines
     new_ns       :     56.93s CPU     56.94s WALL (      13 calls)
     vhpsi        :   2284.64s CPU   2284.76s WALL (     105 calls)

     PWSCF        :      2h18m CPU      2h19m WALL


   This run was terminated on:  22:20:36  16Jun2025            

=------------------------------------------------------------------------------=
   JOB DONE.
=------------------------------------------------------------------------------=
