
     Program PWSCF v.7.3.1 starts on 12Jun2025 at 17:17: 0 

     This program is part of the open-source Quantum ESPRESSO suite
     for quantum simulation of materials; please cite
         "P. Giannozzi et al., J. Phys.:Condens. Matter 21 395502 (2009);
         "P. Giannozzi et al., J. Phys.:Condens. Matter 29 465901 (2017);
         "P. Giannozzi et al., J. Chem. Phys. 152 154105 (2020);
          URL http://www.quantum-espresso.org", 
     in publications or presentations arising from this work. More details at
     http://www.quantum-espresso.org/quote

     Parallel version (MPI), running on   640 processors

     MPI processes distributed on     5 nodes
     428615 MiB available memory on the printing compute node when the environment starts

     Reading input from In0.0Ga1.0As0.25Sb0.75_cube_3x3x3.1.scf.in
Warning: card &CELL ignored
Warning: card   CELL_DOFREE = 'ALL', ignored
Warning: card / ignored

     Current dimensions of program PWSCF are:
     Max number of different atomic species (ntypx) = 10
     Max number of k-points (npk) =  40000
     Max angular momentum in pseudopotentials (lmaxx) =  4

     K-points division:     npool     =       8
     R & G space division:  proc/nbgrp/npool/nimage =      80
     Subspace diagonalization in iterative solution of the eigenvalue problem:
     one sub-group per band group will be used
     custom distributed-memory algorithm (size of sub-group:  8*  8 procs)


     Parallelization info
     --------------------
     sticks:   dense  smooth     PW     G-vecs:    dense   smooth      PW
     Min         552     552    142                87466    87466   11414
     Max         553     553    143                87473    87473   11419
     Sum       44221   44221  11385              6997649  6997649  913281

     Using Slab Decomposition



     bravais-lattice index     =            1
     lattice parameter (alat)  =      34.0307  a.u.
     unit-cell volume          =   39410.5933 (a.u.)^3
     number of atoms/cell      =          216
     number of atomic types    =            4
     number of electrons       =      3024.00
     number of Kohn-Sham states=         2160
     kinetic-energy cutoff     =     120.0000  Ry
     charge density cutoff     =     480.0000  Ry
     scf convergence threshold =      1.0E-05
     mixing beta               =       0.6500
     number of iterations used =            8  plain     mixing
     Exchange-correlation= PBE
                           (   1   4   3   4   0   0   0)
     Hubbard projectors: atomic
     Hubbard parameters of DFT+U (Dudarev formulation) in eV:
     U(As-4p) =  5.8400
     U(Ga-4p) = -2.3350
     U(In-5p) = -1.0575
     U(Sb-5p) =  4.8900

     Internal variables: lda_plus_u =T, lda_plus_u_kind = 0

     celldm(1)=  34.030708  celldm(2)=   0.000000  celldm(3)=   0.000000
     celldm(4)=   0.000000  celldm(5)=   0.000000  celldm(6)=   0.000000

     crystal axes: (cart. coord. in units of alat)
               a(1) = (   1.000000   0.000000   0.000000 )  
               a(2) = (   0.000000   1.000000   0.000000 )  
               a(3) = (   0.000000   0.000000   1.000000 )  

     reciprocal axes: (cart. coord. in units 2 pi/alat)
               b(1) = (  1.000000  0.000000  0.000000 )  
               b(2) = (  0.000000  1.000000  0.000000 )  
               b(3) = (  0.000000  0.000000  1.000000 )  


     PseudoPot. # 1 for As read from file:
     /work/i254/i254/gentles/data/pseudos/As.pbe.NC-SR.standard.v0.5.UPF
     MD5 check sum: bfe1a874457ce592347346129958e7cf
     Pseudo is Norm-conserving + core correction, Zval = 15.0
     Generated using ONCVPSP code by D. R. Hamann
     Using radial grid of 1358 points,  6 beta functions with: 
                l(1) =   0
                l(2) =   0
                l(3) =   1
                l(4) =   1
                l(5) =   2
                l(6) =   2

     PseudoPot. # 2 for Ga read from file:
     /work/i254/i254/gentles/data/pseudos/Ga.pbe.NC-SR.standard.v0.5.UPF
     MD5 check sum: 2bb81bf6f0a8d9832cf3329850435ecf
     Pseudo is Norm-conserving + core correction, Zval = 13.0
     Generated using ONCVPSP code by D. R. Hamann
     Using radial grid of 1902 points,  6 beta functions with: 
                l(1) =   0
                l(2) =   0
                l(3) =   1
                l(4) =   1
                l(5) =   2
                l(6) =   2

     PseudoPot. # 3 for In read from file:
     /work/i254/i254/gentles/data/pseudos/In.pbe.NC-SR.standard.v0.5.UPF
     MD5 check sum: 835f4bf908c982ff75c88e16816a8d7f
     Pseudo is Norm-conserving + core correction, Zval = 13.0
     Generated using ONCVPSP code by D. R. Hamann
     Using radial grid of 1964 points,  6 beta functions with: 
                l(1) =   0
                l(2) =   0
                l(3) =   1
                l(4) =   1
                l(5) =   2
                l(6) =   2

     PseudoPot. # 4 for Sb read from file:
     /work/i254/i254/gentles/data/pseudos/Sb.pbe.NC-SR.standard.v0.5.UPF
     MD5 check sum: 127f69b6101c45666faeae1b5d611565
     Pseudo is Norm-conserving + core correction, Zval = 15.0
     Generated using ONCVPSP code by D. R. Hamann
     Using radial grid of 1434 points,  6 beta functions with: 
                l(1) =   0
                l(2) =   0
                l(3) =   1
                l(4) =   1
                l(5) =   2
                l(6) =   2

     atomic species   valence    mass     pseudopotential
     As               15.00    74.92160     As( 1.00)
     Ga               13.00    69.72300     Ga( 1.00)
     In               13.00   114.81800     In( 1.00)
     Sb               15.00   121.76000     Sb( 1.00)

     No symmetry found



   Cartesian axes

     site n.     atom                  positions (alat units)
         1        Ga     tau(   1) = (   0.0044200   0.0054890   0.0027660  )
         2        Ga     tau(   2) = (   0.0027090   0.1659450   0.1551820  )
         3        Ga     tau(   3) = (   0.1667460   0.0036370   0.1551060  )
         4        Ga     tau(   4) = (   0.1658890   0.1630600  -0.0046100  )
         5        As     tau(   5) = (   0.0860570   0.0857720   0.0780130  )
         6        Sb     tau(   6) = (   0.0814040   0.2505050   0.2445140  )
         7        Sb     tau(   7) = (   0.2505700   0.0834220   0.2459410  )
         8        Sb     tau(   8) = (   0.2499120   0.2505150   0.0802960  )
         9        Ga     tau(   9) = (  -0.0024210  -0.0040130   0.3340990  )
        10        Ga     tau(  10) = (   0.0000130   0.1666120   0.5014830  )
        11        Ga     tau(  11) = (   0.1693100  -0.0012360   0.5000370  )
        12        Ga     tau(  12) = (   0.1656440   0.1665530   0.3294800  )
        13        Sb     tau(  13) = (   0.0829170   0.0822070   0.4162100  )
        14        Sb     tau(  14) = (   0.0860480   0.2483780   0.5848500  )
        15        Sb     tau(  15) = (   0.2521230   0.0824640   0.5870810  )
        16        Sb     tau(  16) = (   0.2521160   0.2503530   0.4134220  )
        17        Ga     tau(  17) = (   0.0073910   0.0056550   0.6750780  )
        18        Ga     tau(  18) = (   0.0086970   0.1702450   0.8364230  )
        19        Ga     tau(  19) = (   0.1685320   0.0089060   0.8325760  )
        20        Ga     tau(  20) = (   0.1635040   0.1622060   0.6736870  )
        21        As     tau(  21) = (   0.0848810   0.0866590   0.7556180  )
        22        As     tau(  22) = (   0.0852790   0.2488270   0.9207030  )
        23        As     tau(  23) = (   0.2489740   0.0819990   0.9165840  )
        24        Sb     tau(  24) = (   0.2485020   0.2464280   0.7566930  )
        25        Ga     tau(  25) = (  -0.0000540   0.3287670  -0.0018750  )
        26        Ga     tau(  26) = (   0.0070330   0.4944850   0.1586520  )
        27        Ga     tau(  27) = (   0.1627880   0.3363830   0.1600670  )
        28        Ga     tau(  28) = (   0.1661240   0.4904390   0.0003490  )
        29        As     tau(  29) = (   0.0819810   0.4117570   0.0773560  )
        30        Sb     tau(  30) = (   0.0866320   0.5815840   0.2475480  )
        31        Sb     tau(  31) = (   0.2539410   0.4148470   0.2470650  )
        32        Sb     tau(  32) = (   0.2501900   0.5800580   0.0829960  )
        33        Ga     tau(  33) = (  -0.0009180   0.3340560   0.3314740  )
        34        Ga     tau(  34) = (  -0.0004140   0.5002660   0.5000220  )
        35        Ga     tau(  35) = (   0.1698710   0.3332760   0.5001860  )
        36        Ga     tau(  36) = (   0.1715900   0.5005810   0.3334070  )
        37        Sb     tau(  37) = (   0.0848720   0.4163550   0.4162200  )
        38        Sb     tau(  38) = (   0.0857760   0.5845400   0.5832650  )
        39        Sb     tau(  39) = (   0.2537910   0.4179760   0.5837710  )
        40        Sb     tau(  40) = (   0.2545980   0.5872890   0.4173990  )
        41        Ga     tau(  41) = (   0.0008120   0.3317990   0.6678820  )
        42        Ga     tau(  42) = (  -0.0040790   0.4931320   0.8394040  )
        43        Ga     tau(  43) = (   0.1682590   0.3304240   0.8465860  )
        44        Ga     tau(  44) = (   0.1664420   0.4984480   0.6691160  )
        45        Sb     tau(  45) = (   0.0850410   0.4124580   0.7562430  )
        46        Sb     tau(  46) = (   0.0841790   0.5790930   0.9181140  )
        47        As     tau(  47) = (   0.2489350   0.4148610   0.9202970  )
        48        Sb     tau(  48) = (   0.2521610   0.5833250   0.7497040  )
        49        Ga     tau(  49) = (   0.0032980   0.6665280   0.0024250  )
        50        Ga     tau(  50) = (  -0.0007160   0.8337840   0.1666230  )
        51        Ga     tau(  51) = (   0.1742130   0.6697360   0.1715660  )
        52        Ga     tau(  52) = (   0.1719500   0.8395210   0.0039840  )
        53        Sb     tau(  53) = (   0.0880720   0.7518660   0.0853690  )
        54        Sb     tau(  54) = (   0.0867080   0.9183610   0.2468070  )
        55        As     tau(  55) = (   0.2524020   0.7524830   0.2483010  )
        56        As     tau(  56) = (   0.2490850   0.9201210   0.0817710  )
        57        Ga     tau(  57) = (   0.0022180   0.6650940   0.3332560  )
        58        Ga     tau(  58) = (  -0.0025480   0.8391310   0.4951150  )
        59        Ga     tau(  59) = (   0.1736820   0.6726340   0.5049690  )
        60        Ga     tau(  60) = (   0.1725380   0.8302460   0.3270890  )
        61        Sb     tau(  61) = (   0.0865170   0.7519290   0.4161370  )
        62        Sb     tau(  62) = (   0.0851600   0.9166500   0.5855410  )
        63        As     tau(  63) = (   0.2564770   0.7494130   0.5832130  )
        64        Sb     tau(  64) = (   0.2536690   0.9127460   0.4170580  )
        65        Ga     tau(  65) = (   0.0000080   0.6655680   0.6674010  )
        66        Ga     tau(  66) = (   0.0023440   0.8364860   0.8346870  )
        67        Ga     tau(  67) = (   0.1674880   0.6668590   0.8341800  )
        68        Ga     tau(  68) = (   0.1757890   0.8287450   0.6627240  )
        69        Sb     tau(  69) = (   0.0854610   0.7512200   0.7490090  )
        70        Sb     tau(  70) = (   0.0874100   0.9215290   0.9174900  )
        71        Sb     tau(  71) = (   0.2517590   0.7520790   0.9184190  )
        72        Sb     tau(  72) = (   0.2532050   0.9192470   0.7505250  )
        73        Ga     tau(  73) = (   0.3268110  -0.0020060  -0.0031820  )
        74        Ga     tau(  74) = (   0.3372970   0.1730880   0.1702750  )
        75        Ga     tau(  75) = (   0.5019300  -0.0054600   0.1615300  )
        76        Ga     tau(  76) = (   0.4983560   0.1673360  -0.0011570  )
        77        Sb     tau(  77) = (   0.4139380   0.0818680   0.0822100  )
        78        As     tau(  78) = (   0.4164850   0.2539220   0.2494040  )
        79        Sb     tau(  79) = (   0.5814050   0.0845230   0.2457400  )
        80        Sb     tau(  80) = (   0.5810660   0.2508720   0.0832570  )
        81        Ga     tau(  81) = (   0.3345000  -0.0003540   0.3321580  )
        82        Ga     tau(  82) = (   0.3331850   0.1675340   0.5006920  )
        83        Ga     tau(  83) = (   0.4948180  -0.0047200   0.5050260  )
        84        Ga     tau(  84) = (   0.4955450   0.1723620   0.3268230  )
        85        Sb     tau(  85) = (   0.4174940   0.0843390   0.4160420  )
        86        Sb     tau(  86) = (   0.4180330   0.2505460   0.5853150  )
        87        Sb     tau(  87) = (   0.5798210   0.0821590   0.5881150  )
        88        Sb     tau(  88) = (   0.5807270   0.2521720   0.4155190  )
        89        Ga     tau(  89) = (   0.3422050  -0.0008250   0.6671120  )
        90        Ga     tau(  90) = (   0.3325840   0.1568550   0.8350660  )
        91        Ga     tau(  91) = (   0.4907220   0.0010400   0.8356910  )
        92        Ga     tau(  92) = (   0.4945230   0.1631930   0.6754010  )
        93        As     tau(  93) = (   0.4147120   0.0807930   0.7531330  )
        94        Sb     tau(  94) = (   0.4141700   0.2509500   0.9150880  )
        95        Sb     tau(  95) = (   0.5830270   0.0825740   0.9160980  )
        96        Sb     tau(  96) = (   0.5846210   0.2505020   0.7516080  )
        97        Ga     tau(  97) = (   0.3328840   0.3398520  -0.0008060  )
        98        Ga     tau(  98) = (   0.3395970   0.4959060   0.1607000  )
        99        Ga     tau(  99) = (   0.4916370   0.3330780   0.1648990  )
       100        Ga     tau( 100) = (   0.5011310   0.4893580   0.0006300  )
       101        As     tau( 101) = (   0.4170570   0.4137030   0.0806930  )
       102        Sb     tau( 102) = (   0.4146990   0.5839980   0.2511580  )
       103        Sb     tau( 103) = (   0.5794460   0.4171860   0.2480210  )
       104        Sb     tau( 104) = (   0.5826690   0.5796790   0.0830980  )
       105        Ga     tau( 105) = (   0.3419120   0.3339680   0.3337100  )
       106        Ga     tau( 106) = (   0.3421360   0.5003330   0.4985260  )
       107        Ga     tau( 107) = (   0.5008490   0.3409920   0.5020520  )
       108        Ga     tau( 108) = (   0.4951550   0.4963740   0.3379110  )
       109        As     tau( 109) = (   0.4183860   0.4160880   0.4187760  )
       110        As     tau( 110) = (   0.4167100   0.5834100   0.5793200  )
       111        As     tau( 111) = (   0.5801620   0.4187750   0.5848670  )
       112        Sb     tau( 112) = (   0.5807900   0.5834660   0.4169650  )
       113        Ga     tau( 113) = (   0.3325430   0.3308520   0.6708050  )
       114        Ga     tau( 114) = (   0.3275960   0.4942420   0.8382460  )
       115        Ga     tau( 115) = (   0.5040530   0.3363830   0.8373980  )
       116        Ga     tau( 116) = (   0.4971450   0.5023060   0.6580840  )
       117        Sb     tau( 117) = (   0.4175110   0.4178170   0.7507210  )
       118        Sb     tau( 118) = (   0.4167240   0.5774490   0.9185220  )
       119        As     tau( 119) = (   0.5822120   0.4156000   0.9167700  )
       120        Sb     tau( 120) = (   0.5822840   0.5790300   0.7493200  )
       121        Ga     tau( 121) = (   0.3347570   0.6653430   0.0000390  )
       122        Ga     tau( 122) = (   0.3237950   0.8363510   0.1649660  )
       123        Ga     tau( 123) = (   0.4986810   0.6667000   0.1656510  )
       124        Ga     tau( 124) = (   0.4979570   0.8452140  -0.0002280  )
       125        Sb     tau( 125) = (   0.4146690   0.7553390   0.0829830  )
       126        Sb     tau( 126) = (   0.4159690   0.9126770   0.2486060  )
       127        Sb     tau( 127) = (   0.5822000   0.7495010   0.2503970  )
       128        As     tau( 128) = (   0.5831160   0.9194120   0.0812340  )
       129        Ga     tau( 129) = (   0.3329770   0.6769090   0.3319770  )
       130        Ga     tau( 130) = (   0.3376170   0.8301000   0.5046490  )
       131        Ga     tau( 131) = (   0.4902850   0.6663470   0.4974780  )
       132        Ga     tau( 132) = (   0.4933310   0.8260840   0.3392380  )
       133        As     tau( 133) = (   0.4125920   0.7496400   0.4194540  )
       134        As     tau( 134) = (   0.4149560   0.9159040   0.5834700  )
       135        Sb     tau( 135) = (   0.5774910   0.7490820   0.5818850  )
       136        Sb     tau( 136) = (   0.5787260   0.9150360   0.4174440  )
       137        Ga     tau( 137) = (   0.3352240   0.6646090   0.6588030  )
       138        Ga     tau( 138) = (   0.3380470   0.8380940   0.8385130  )
       139        Ga     tau( 139) = (   0.4977240   0.6643400   0.8323150  )
       140        Ga     tau( 140) = (   0.4963280   0.8391990   0.6622230  )
       141        Sb     tau( 141) = (   0.4155710   0.7513060   0.7475140  )
       142        As     tau( 142) = (   0.4138710   0.9212370   0.9188550  )
       143        Sb     tau( 143) = (   0.5786540   0.7518400   0.9180730  )
       144        Sb     tau( 144) = (   0.5796940   0.9206510   0.7505770  )
       145        Ga     tau( 145) = (   0.6660790   0.0022630   0.0070860  )
       146        Ga     tau( 146) = (   0.6704320   0.1633560   0.1602470  )
       147        Ga     tau( 147) = (   0.8271070   0.0060810   0.1615400  )
       148        Ga     tau( 148) = (   0.8336900   0.1688130   0.0061400  )
       149        As     tau( 149) = (   0.7497550   0.0855000   0.0808340  )
       150        Sb     tau( 150) = (   0.7523000   0.2486300   0.2451190  )
       151        Sb     tau( 151) = (   0.9184730   0.0833410   0.2449900  )
       152        As     tau( 152) = (   0.9204210   0.2476120   0.0792850  )
       153        Ga     tau( 153) = (   0.6626540   0.0011940   0.3339090  )
       154        Ga     tau( 154) = (   0.6627600   0.1668780   0.5018150  )
       155        Ga     tau( 155) = (   0.8387890  -0.0044310   0.4968690  )
       156        Ga     tau( 156) = (   0.8340270   0.1657680   0.3314900  )
       157        Sb     tau( 157) = (   0.7502060   0.0825760   0.4181770  )
       158        Sb     tau( 158) = (   0.7469800   0.2520180   0.5862820  )
       159        Sb     tau( 159) = (   0.9174860   0.0820150   0.5869000  )
       160        Sb     tau( 160) = (   0.9166080   0.2499630   0.4164760  )
       161        Ga     tau( 161) = (   0.6707790   0.0052750   0.6722630  )
       162        Ga     tau( 162) = (   0.6719750   0.1631230   0.8305310  )
       163        Ga     tau( 163) = (   0.8300350   0.0068050   0.8324780  )
       164        Ga     tau( 164) = (   0.8286600   0.1635160   0.6722580  )
       165        As     tau( 165) = (   0.7505430   0.0839710   0.7514570  )
       166        Sb     tau( 166) = (   0.7498720   0.2514540   0.9182790  )
       167        Sb     tau( 167) = (   0.9182830   0.0879290   0.9181330  )
       168        Sb     tau( 168) = (   0.9166800   0.2494420   0.7531920  )
       169        Ga     tau( 169) = (   0.6601640   0.3373150  -0.0037550  )
       170        Ga     tau( 170) = (   0.6710440   0.5023870   0.1701050  )
       171        Ga     tau( 171) = (   0.8407010   0.3267890   0.1587970  )
       172        Ga     tau( 172) = (   0.8390720   0.4936460  -0.0044120  )
       173        Sb     tau( 173) = (   0.7514370   0.4147120   0.0817020  )
       174        As     tau( 174) = (   0.7487270   0.5825110   0.2496800  )
       175        Sb     tau( 175) = (   0.9168480   0.4172230   0.2448560  )
       176        Sb     tau( 176) = (   0.9168760   0.5815120   0.0835800  )
       177        Ga     tau( 177) = (   0.6660560   0.3324380   0.3291960  )
       178        Ga     tau( 178) = (   0.6593750   0.4963410   0.5044230  )
       179        Ga     tau( 179) = (   0.8326360   0.3337890   0.5000430  )
       180        Ga     tau( 180) = (   0.8283530   0.5027980   0.3270490  )
       181        Sb     tau( 181) = (   0.7470090   0.4177840   0.4154190  )
       182        Sb     tau( 182) = (   0.7471490   0.5803650   0.5854480  )
       183        Sb     tau( 183) = (   0.9150610   0.4173510   0.5866990  )
       184        Sb     tau( 184) = (   0.9150300   0.5819600   0.4142640  )
       185        Ga     tau( 185) = (   0.6636200   0.3413010   0.6676270  )
       186        Ga     tau( 186) = (   0.6644050   0.4904160   0.8337360  )
       187        Ga     tau( 187) = (   0.8330870   0.3387380   0.8349140  )
       188        Ga     tau( 188) = (   0.8255640   0.4946680   0.6743600  )
       189        As     tau( 189) = (   0.7466210   0.4140190   0.7534490  )
       190        Sb     tau( 190) = (   0.7492710   0.5782160   0.9152090  )
       191        As     tau( 191) = (   0.9179680   0.4115340   0.9178390  )
       192        Sb     tau( 192) = (   0.9154650   0.5794620   0.7520110  )
       193        Ga     tau( 193) = (   0.6650040   0.6648430  -0.0011500  )
       194        Ga     tau( 194) = (   0.6597660   0.8378530   0.1622380  )
       195        Ga     tau( 195) = (   0.8281080   0.6620530   0.1711340  )
       196        Ga     tau( 196) = (   0.8347020   0.8340860  -0.0005220  )
       197        Sb     tau( 197) = (   0.7480290   0.7498150   0.0839500  )
       198        Sb     tau( 198) = (   0.7475370   0.9190200   0.2482240  )
       199        Sb     tau( 199) = (   0.9156820   0.7493100   0.2512450  )
       200        Sb     tau( 200) = (   0.9166180   0.9205320   0.0832370  )
       201        Ga     tau( 201) = (   0.6700480   0.6623360   0.3286820  )
       202        Ga     tau( 202) = (   0.6644840   0.8319030   0.5000170  )
       203        Ga     tau( 203) = (   0.8321230   0.6646820   0.5006640  )
       204        Ga     tau( 204) = (   0.8364970   0.8385780   0.3358460  )
       205        Sb     tau( 205) = (   0.7504610   0.7499020   0.4151440  )
       206        Sb     tau( 206) = (   0.7497510   0.9177670   0.5833470  )
       207        Sb     tau( 207) = (   0.9174310   0.7507790   0.5816300  )
       208        As     tau( 208) = (   0.9173460   0.9176450   0.4147650  )
       209        Ga     tau( 209) = (   0.6640540   0.6671990   0.6673700  )
       210        Ga     tau( 210) = (   0.6632260   0.8353490   0.8342960  )
       211        Ga     tau( 211) = (   0.8322910   0.6658360   0.8335490  )
       212        Ga     tau( 212) = (   0.8347840   0.8350910   0.6668230  )
       213        Sb     tau( 213) = (   0.7490060   0.7520740   0.7505540  )
       214        Sb     tau( 214) = (   0.7482800   0.9199220   0.9183750  )
       215        Sb     tau( 215) = (   0.9190280   0.7492960   0.9167560  )
       216        Sb     tau( 216) = (   0.9171630   0.9209750   0.7522320  )

     number of k points=     8
                       cart. coord. in units 2pi/alat
        k(    1) = (   0.0000000   0.0000000   0.0000000), wk =   0.2500000
        k(    2) = (   0.0000000   0.0000000  -0.5000000), wk =   0.2500000
        k(    3) = (   0.0000000  -0.5000000  -0.5000000), wk =   0.2500000
        k(    4) = (  -0.5000000  -0.5000000  -0.5000000), wk =   0.2500000
        k(    5) = (  -0.5000000   0.0000000   0.0000000), wk =   0.2500000
        k(    6) = (   0.0000000  -0.5000000   0.0000000), wk =   0.2500000
        k(    7) = (  -0.5000000   0.0000000   0.5000000), wk =   0.2500000
        k(    8) = (  -0.5000000   0.5000000   0.0000000), wk =   0.2500000

     Dense  grid:  6997649 G-vectors     FFT dimensions: ( 240, 240, 240)

     Estimated max dynamical RAM per process >       2.70 GB

     Estimated total dynamical RAM >    1715.61 GB

     Initial potential from superposition of free atoms

     starting charge    3023.6593, renormalised to    3024.0000

     STARTING HUBBARD OCCUPATIONS:

     =================== HUBBARD OCCUPATIONS ===================
     ------------------------ ATOM    1 ------------------------
     Tr[ns(  1)] =   1.00000
     eigenvalues:
       0.167  0.167  0.167
     eigenvectors (columns):
       1.000  0.000  0.000
       0.000  1.000  0.000
       0.000  0.000  1.000
     occupation matrix ns (before diag.):
       0.167  0.000  0.000
       0.000  0.167  0.000
       0.000  0.000  0.167
     ------------------------ ATOM    2 ------------------------
     Tr[ns(  2)] =   1.00000
     eigenvalues:
       0.167  0.167  0.167
     eigenvectors (columns):
       1.000  0.000  0.000
       0.000  1.000  0.000
       0.000  0.000  1.000
     occupation matrix ns (before diag.):
       0.167  0.000  0.000
       0.000  0.167  0.000
       0.000  0.000  0.167
     ------------------------ ATOM    3 ------------------------
     Tr[ns(  3)] =   1.00000
     eigenvalues:
       0.167  0.167  0.167
     eigenvectors (columns):
       1.000  0.000  0.000
       0.000  1.000  0.000
       0.000  0.000  1.000
     occupation matrix ns (before diag.):
       0.167  0.000  0.000
       0.000  0.167  0.000
       0.000  0.000  0.167
     ------------------------ ATOM    4 ------------------------
     Tr[ns(  4)] =   1.00000
     eigenvalues:
       0.167  0.167  0.167
     eigenvectors (columns):
       1.000  0.000  0.000
       0.000  1.000  0.000
       0.000  0.000  1.000
     occupation matrix ns (before diag.):
       0.167  0.000  0.000
       0.000  0.167  0.000
       0.000  0.000  0.167
     ------------------------ ATOM    5 ------------------------
     Tr[ns(  5)] =   3.00000
     eigenvalues:
       0.500  0.500  0.500
     eigenvectors (columns):
       1.000  0.000  0.000
       0.000  1.000  0.000
       0.000  0.000  1.000
     occupation matrix ns (before diag.):
       0.500  0.000  0.000
       0.000  0.500  0.000
       0.000  0.000  0.500
     ------------------------ ATOM    6 ------------------------
     Tr[ns(  6)] =   3.00000
     eigenvalues:
       0.500  0.500  0.500
     eigenvectors (columns):
       1.000  0.000  0.000
       0.000  1.000  0.000
       0.000  0.000  1.000
     occupation matrix ns (before diag.):
       0.500  0.000  0.000
       0.000  0.500  0.000
       0.000  0.000  0.500
     ------------------------ ATOM    7 ------------------------
     Tr[ns(  7)] =   3.00000
     eigenvalues:
       0.500  0.500  0.500
     eigenvectors (columns):
       1.000  0.000  0.000
       0.000  1.000  0.000
       0.000  0.000  1.000
     occupation matrix ns (before diag.):
       0.500  0.000  0.000
       0.000  0.500  0.000
       0.000  0.000  0.500
     ------------------------ ATOM    8 ------------------------
     Tr[ns(  8)] =   3.00000
     eigenvalues:
       0.500  0.500  0.500
     eigenvectors (columns):
       1.000  0.000  0.000
       0.000  1.000  0.000
       0.000  0.000  1.000
     occupation matrix ns (before diag.):
       0.500  0.000  0.000
       0.000  0.500  0.000
       0.000  0.000  0.500
     ------------------------ ATOM    9 ------------------------
     Tr[ns(  9)] =   1.00000
     eigenvalues:
       0.167  0.167  0.167
     eigenvectors (columns):
       1.000  0.000  0.000
       0.000  1.000  0.000
       0.000  0.000  1.000
     occupation matrix ns (before diag.):
       0.167  0.000  0.000
       0.000  0.167  0.000
       0.000  0.000  0.167
     ------------------------ ATOM   10 ------------------------
     Tr[ns( 10)] =   1.00000
     eigenvalues:
       0.167  0.167  0.167
     eigenvectors (columns):
       1.000  0.000  0.000
       0.000  1.000  0.000
       0.000  0.000  1.000
     occupation matrix ns (before diag.):
       0.167  0.000  0.000
       0.000  0.167  0.000
       0.000  0.000  0.167
     ------------------------ ATOM   11 ------------------------
     Tr[ns( 11)] =   1.00000
     eigenvalues:
       0.167  0.167  0.167
     eigenvectors (columns):
       1.000  0.000  0.000
       0.000  1.000  0.000
       0.000  0.000  1.000
     occupation matrix ns (before diag.):
       0.167  0.000  0.000
       0.000  0.167  0.000
       0.000  0.000  0.167
     ------------------------ ATOM   12 ------------------------
     Tr[ns( 12)] =   1.00000
     eigenvalues:
       0.167  0.167  0.167
     eigenvectors (columns):
       1.000  0.000  0.000
       0.000  1.000  0.000
       0.000  0.000  1.000
     occupation matrix ns (before diag.):
       0.167  0.000  0.000
       0.000  0.167  0.000
       0.000  0.000  0.167
     ------------------------ ATOM   13 ------------------------
     Tr[ns( 13)] =   3.00000
     eigenvalues:
       0.500  0.500  0.500
     eigenvectors (columns):
       1.000  0.000  0.000
       0.000  1.000  0.000
       0.000  0.000  1.000
     occupation matrix ns (before diag.):
       0.500  0.000  0.000
       0.000  0.500  0.000
       0.000  0.000  0.500
     ------------------------ ATOM   14 ------------------------
     Tr[ns( 14)] =   3.00000
     eigenvalues:
       0.500  0.500  0.500
     eigenvectors (columns):
       1.000  0.000  0.000
       0.000  1.000  0.000
       0.000  0.000  1.000
     occupation matrix ns (before diag.):
       0.500  0.000  0.000
       0.000  0.500  0.000
       0.000  0.000  0.500
     ------------------------ ATOM   15 ------------------------
     Tr[ns( 15)] =   3.00000
     eigenvalues:
       0.500  0.500  0.500
     eigenvectors (columns):
       1.000  0.000  0.000
       0.000  1.000  0.000
       0.000  0.000  1.000
     occupation matrix ns (before diag.):
       0.500  0.000  0.000
       0.000  0.500  0.000
       0.000  0.000  0.500
     ------------------------ ATOM   16 ------------------------
     Tr[ns( 16)] =   3.00000
     eigenvalues:
       0.500  0.500  0.500
     eigenvectors (columns):
       1.000  0.000  0.000
       0.000  1.000  0.000
       0.000  0.000  1.000
     occupation matrix ns (before diag.):
       0.500  0.000  0.000
       0.000  0.500  0.000
       0.000  0.000  0.500
     ------------------------ ATOM   17 ------------------------
     Tr[ns( 17)] =   1.00000
     eigenvalues:
       0.167  0.167  0.167
     eigenvectors (columns):
       1.000  0.000  0.000
       0.000  1.000  0.000
       0.000  0.000  1.000
     occupation matrix ns (before diag.):
       0.167  0.000  0.000
       0.000  0.167  0.000
       0.000  0.000  0.167
     ------------------------ ATOM   18 ------------------------
     Tr[ns( 18)] =   1.00000
     eigenvalues:
       0.167  0.167  0.167
     eigenvectors (columns):
       1.000  0.000  0.000
       0.000  1.000  0.000
       0.000  0.000  1.000
     occupation matrix ns (before diag.):
       0.167  0.000  0.000
       0.000  0.167  0.000
       0.000  0.000  0.167
     ------------------------ ATOM   19 ------------------------
     Tr[ns( 19)] =   1.00000
     eigenvalues:
       0.167  0.167  0.167
     eigenvectors (columns):
       1.000  0.000  0.000
       0.000  1.000  0.000
       0.000  0.000  1.000
     occupation matrix ns (before diag.):
       0.167  0.000  0.000
       0.000  0.167  0.000
       0.000  0.000  0.167
     ------------------------ ATOM   20 ------------------------
     Tr[ns( 20)] =   1.00000
     eigenvalues:
       0.167  0.167  0.167
     eigenvectors (columns):
       1.000  0.000  0.000
       0.000  1.000  0.000
       0.000  0.000  1.000
     occupation matrix ns (before diag.):
       0.167  0.000  0.000
       0.000  0.167  0.000
       0.000  0.000  0.167
     ------------------------ ATOM   21 ------------------------
     Tr[ns( 21)] =   3.00000
     eigenvalues:
       0.500  0.500  0.500
     eigenvectors (columns):
       1.000  0.000  0.000
       0.000  1.000  0.000
       0.000  0.000  1.000
     occupation matrix ns (before diag.):
       0.500  0.000  0.000
       0.000  0.500  0.000
       0.000  0.000  0.500
     ------------------------ ATOM   22 ------------------------
     Tr[ns( 22)] =   3.00000
     eigenvalues:
       0.500  0.500  0.500
     eigenvectors (columns):
       1.000  0.000  0.000
       0.000  1.000  0.000
       0.000  0.000  1.000
     occupation matrix ns (before diag.):
       0.500  0.000  0.000
       0.000  0.500  0.000
       0.000  0.000  0.500
     ------------------------ ATOM   23 ------------------------
     Tr[ns( 23)] =   3.00000
     eigenvalues:
       0.500  0.500  0.500
     eigenvectors (columns):
       1.000  0.000  0.000
       0.000  1.000  0.000
       0.000  0.000  1.000
     occupation matrix ns (before diag.):
       0.500  0.000  0.000
       0.000  0.500  0.000
       0.000  0.000  0.500
     ------------------------ ATOM   24 ------------------------
     Tr[ns( 24)] =   3.00000
     eigenvalues:
       0.500  0.500  0.500
     eigenvectors (columns):
       1.000  0.000  0.000
       0.000  1.000  0.000
       0.000  0.000  1.000
     occupation matrix ns (before diag.):
       0.500  0.000  0.000
       0.000  0.500  0.000
       0.000  0.000  0.500
     ------------------------ ATOM   25 ------------------------
     Tr[ns( 25)] =   1.00000
     eigenvalues:
       0.167  0.167  0.167
     eigenvectors (columns):
       1.000  0.000  0.000
       0.000  1.000  0.000
       0.000  0.000  1.000
     occupation matrix ns (before diag.):
       0.167  0.000  0.000
       0.000  0.167  0.000
       0.000  0.000  0.167
     ------------------------ ATOM   26 ------------------------
     Tr[ns( 26)] =   1.00000
     eigenvalues:
       0.167  0.167  0.167
     eigenvectors (columns):
       1.000  0.000  0.000
       0.000  1.000  0.000
       0.000  0.000  1.000
     occupation matrix ns (before diag.):
       0.167  0.000  0.000
       0.000  0.167  0.000
       0.000  0.000  0.167
     ------------------------ ATOM   27 ------------------------
     Tr[ns( 27)] =   1.00000
     eigenvalues:
       0.167  0.167  0.167
     eigenvectors (columns):
       1.000  0.000  0.000
       0.000  1.000  0.000
       0.000  0.000  1.000
     occupation matrix ns (before diag.):
       0.167  0.000  0.000
       0.000  0.167  0.000
       0.000  0.000  0.167
     ------------------------ ATOM   28 ------------------------
     Tr[ns( 28)] =   1.00000
     eigenvalues:
       0.167  0.167  0.167
     eigenvectors (columns):
       1.000  0.000  0.000
       0.000  1.000  0.000
       0.000  0.000  1.000
     occupation matrix ns (before diag.):
       0.167  0.000  0.000
       0.000  0.167  0.000
       0.000  0.000  0.167
     ------------------------ ATOM   29 ------------------------
     Tr[ns( 29)] =   3.00000
     eigenvalues:
       0.500  0.500  0.500
     eigenvectors (columns):
       1.000  0.000  0.000
       0.000  1.000  0.000
       0.000  0.000  1.000
     occupation matrix ns (before diag.):
       0.500  0.000  0.000
       0.000  0.500  0.000
       0.000  0.000  0.500
     ------------------------ ATOM   30 ------------------------
     Tr[ns( 30)] =   3.00000
     eigenvalues:
       0.500  0.500  0.500
     eigenvectors (columns):
       1.000  0.000  0.000
       0.000  1.000  0.000
       0.000  0.000  1.000
     occupation matrix ns (before diag.):
       0.500  0.000  0.000
       0.000  0.500  0.000
       0.000  0.000  0.500
     ------------------------ ATOM   31 ------------------------
     Tr[ns( 31)] =   3.00000
     eigenvalues:
       0.500  0.500  0.500
     eigenvectors (columns):
       1.000  0.000  0.000
       0.000  1.000  0.000
       0.000  0.000  1.000
     occupation matrix ns (before diag.):
       0.500  0.000  0.000
       0.000  0.500  0.000
       0.000  0.000  0.500
     ------------------------ ATOM   32 ------------------------
     Tr[ns( 32)] =   3.00000
     eigenvalues:
       0.500  0.500  0.500
     eigenvectors (columns):
       1.000  0.000  0.000
       0.000  1.000  0.000
       0.000  0.000  1.000
     occupation matrix ns (before diag.):
       0.500  0.000  0.000
       0.000  0.500  0.000
       0.000  0.000  0.500
     ------------------------ ATOM   33 ------------------------
     Tr[ns( 33)] =   1.00000
     eigenvalues:
       0.167  0.167  0.167
     eigenvectors (columns):
       1.000  0.000  0.000
       0.000  1.000  0.000
       0.000  0.000  1.000
     occupation matrix ns (before diag.):
       0.167  0.000  0.000
       0.000  0.167  0.000
       0.000  0.000  0.167
     ------------------------ ATOM   34 ------------------------
     Tr[ns( 34)] =   1.00000
     eigenvalues:
       0.167  0.167  0.167
     eigenvectors (columns):
       1.000  0.000  0.000
       0.000  1.000  0.000
       0.000  0.000  1.000
     occupation matrix ns (before diag.):
       0.167  0.000  0.000
       0.000  0.167  0.000
       0.000  0.000  0.167
     ------------------------ ATOM   35 ------------------------
     Tr[ns( 35)] =   1.00000
     eigenvalues:
       0.167  0.167  0.167
     eigenvectors (columns):
       1.000  0.000  0.000
       0.000  1.000  0.000
       0.000  0.000  1.000
     occupation matrix ns (before diag.):
       0.167  0.000  0.000
       0.000  0.167  0.000
       0.000  0.000  0.167
     ------------------------ ATOM   36 ------------------------
     Tr[ns( 36)] =   1.00000
     eigenvalues:
       0.167  0.167  0.167
     eigenvectors (columns):
       1.000  0.000  0.000
       0.000  1.000  0.000
       0.000  0.000  1.000
     occupation matrix ns (before diag.):
       0.167  0.000  0.000
       0.000  0.167  0.000
       0.000  0.000  0.167
     ------------------------ ATOM   37 ------------------------
     Tr[ns( 37)] =   3.00000
     eigenvalues:
       0.500  0.500  0.500
     eigenvectors (columns):
       1.000  0.000  0.000
       0.000  1.000  0.000
       0.000  0.000  1.000
     occupation matrix ns (before diag.):
       0.500  0.000  0.000
       0.000  0.500  0.000
       0.000  0.000  0.500
     ------------------------ ATOM   38 ------------------------
     Tr[ns( 38)] =   3.00000
     eigenvalues:
       0.500  0.500  0.500
     eigenvectors (columns):
       1.000  0.000  0.000
       0.000  1.000  0.000
       0.000  0.000  1.000
     occupation matrix ns (before diag.):
       0.500  0.000  0.000
       0.000  0.500  0.000
       0.000  0.000  0.500
     ------------------------ ATOM   39 ------------------------
     Tr[ns( 39)] =   3.00000
     eigenvalues:
       0.500  0.500  0.500
     eigenvectors (columns):
       1.000  0.000  0.000
       0.000  1.000  0.000
       0.000  0.000  1.000
     occupation matrix ns (before diag.):
       0.500  0.000  0.000
       0.000  0.500  0.000
       0.000  0.000  0.500
     ------------------------ ATOM   40 ------------------------
     Tr[ns( 40)] =   3.00000
     eigenvalues:
       0.500  0.500  0.500
     eigenvectors (columns):
       1.000  0.000  0.000
       0.000  1.000  0.000
       0.000  0.000  1.000
     occupation matrix ns (before diag.):
       0.500  0.000  0.000
       0.000  0.500  0.000
       0.000  0.000  0.500
     ------------------------ ATOM   41 ------------------------
     Tr[ns( 41)] =   1.00000
     eigenvalues:
       0.167  0.167  0.167
     eigenvectors (columns):
       1.000  0.000  0.000
       0.000  1.000  0.000
       0.000  0.000  1.000
     occupation matrix ns (before diag.):
       0.167  0.000  0.000
       0.000  0.167  0.000
       0.000  0.000  0.167
     ------------------------ ATOM   42 ------------------------
     Tr[ns( 42)] =   1.00000
     eigenvalues:
       0.167  0.167  0.167
     eigenvectors (columns):
       1.000  0.000  0.000
       0.000  1.000  0.000
       0.000  0.000  1.000
     occupation matrix ns (before diag.):
       0.167  0.000  0.000
       0.000  0.167  0.000
       0.000  0.000  0.167
     ------------------------ ATOM   43 ------------------------
     Tr[ns( 43)] =   1.00000
     eigenvalues:
       0.167  0.167  0.167
     eigenvectors (columns):
       1.000  0.000  0.000
       0.000  1.000  0.000
       0.000  0.000  1.000
     occupation matrix ns (before diag.):
       0.167  0.000  0.000
       0.000  0.167  0.000
       0.000  0.000  0.167
     ------------------------ ATOM   44 ------------------------
     Tr[ns( 44)] =   1.00000
     eigenvalues:
       0.167  0.167  0.167
     eigenvectors (columns):
       1.000  0.000  0.000
       0.000  1.000  0.000
       0.000  0.000  1.000
     occupation matrix ns (before diag.):
       0.167  0.000  0.000
       0.000  0.167  0.000
       0.000  0.000  0.167
     ------------------------ ATOM   45 ------------------------
     Tr[ns( 45)] =   3.00000
     eigenvalues:
       0.500  0.500  0.500
     eigenvectors (columns):
       1.000  0.000  0.000
       0.000  1.000  0.000
       0.000  0.000  1.000
     occupation matrix ns (before diag.):
       0.500  0.000  0.000
       0.000  0.500  0.000
       0.000  0.000  0.500
     ------------------------ ATOM   46 ------------------------
     Tr[ns( 46)] =   3.00000
     eigenvalues:
       0.500  0.500  0.500
     eigenvectors (columns):
       1.000  0.000  0.000
       0.000  1.000  0.000
       0.000  0.000  1.000
     occupation matrix ns (before diag.):
       0.500  0.000  0.000
       0.000  0.500  0.000
       0.000  0.000  0.500
     ------------------------ ATOM   47 ------------------------
     Tr[ns( 47)] =   3.00000
     eigenvalues:
       0.500  0.500  0.500
     eigenvectors (columns):
       1.000  0.000  0.000
       0.000  1.000  0.000
       0.000  0.000  1.000
     occupation matrix ns (before diag.):
       0.500  0.000  0.000
       0.000  0.500  0.000
       0.000  0.000  0.500
     ------------------------ ATOM   48 ------------------------
     Tr[ns( 48)] =   3.00000
     eigenvalues:
       0.500  0.500  0.500
     eigenvectors (columns):
       1.000  0.000  0.000
       0.000  1.000  0.000
       0.000  0.000  1.000
     occupation matrix ns (before diag.):
       0.500  0.000  0.000
       0.000  0.500  0.000
       0.000  0.000  0.500
     ------------------------ ATOM   49 ------------------------
     Tr[ns( 49)] =   1.00000
     eigenvalues:
       0.167  0.167  0.167
     eigenvectors (columns):
       1.000  0.000  0.000
       0.000  1.000  0.000
       0.000  0.000  1.000
     occupation matrix ns (before diag.):
       0.167  0.000  0.000
       0.000  0.167  0.000
       0.000  0.000  0.167
     ------------------------ ATOM   50 ------------------------
     Tr[ns( 50)] =   1.00000
     eigenvalues:
       0.167  0.167  0.167
     eigenvectors (columns):
       1.000  0.000  0.000
       0.000  1.000  0.000
       0.000  0.000  1.000
     occupation matrix ns (before diag.):
       0.167  0.000  0.000
       0.000  0.167  0.000
       0.000  0.000  0.167
     ------------------------ ATOM   51 ------------------------
     Tr[ns( 51)] =   1.00000
     eigenvalues:
       0.167  0.167  0.167
     eigenvectors (columns):
       1.000  0.000  0.000
       0.000  1.000  0.000
       0.000  0.000  1.000
     occupation matrix ns (before diag.):
       0.167  0.000  0.000
       0.000  0.167  0.000
       0.000  0.000  0.167
     ------------------------ ATOM   52 ------------------------
     Tr[ns( 52)] =   1.00000
     eigenvalues:
       0.167  0.167  0.167
     eigenvectors (columns):
       1.000  0.000  0.000
       0.000  1.000  0.000
       0.000  0.000  1.000
     occupation matrix ns (before diag.):
       0.167  0.000  0.000
       0.000  0.167  0.000
       0.000  0.000  0.167
     ------------------------ ATOM   53 ------------------------
     Tr[ns( 53)] =   3.00000
     eigenvalues:
       0.500  0.500  0.500
     eigenvectors (columns):
       1.000  0.000  0.000
       0.000  1.000  0.000
       0.000  0.000  1.000
     occupation matrix ns (before diag.):
       0.500  0.000  0.000
       0.000  0.500  0.000
       0.000  0.000  0.500
     ------------------------ ATOM   54 ------------------------
     Tr[ns( 54)] =   3.00000
     eigenvalues:
       0.500  0.500  0.500
     eigenvectors (columns):
       1.000  0.000  0.000
       0.000  1.000  0.000
       0.000  0.000  1.000
     occupation matrix ns (before diag.):
       0.500  0.000  0.000
       0.000  0.500  0.000
       0.000  0.000  0.500
     ------------------------ ATOM   55 ------------------------
     Tr[ns( 55)] =   3.00000
     eigenvalues:
       0.500  0.500  0.500
     eigenvectors (columns):
       1.000  0.000  0.000
       0.000  1.000  0.000
       0.000  0.000  1.000
     occupation matrix ns (before diag.):
       0.500  0.000  0.000
       0.000  0.500  0.000
       0.000  0.000  0.500
     ------------------------ ATOM   56 ------------------------
     Tr[ns( 56)] =   3.00000
     eigenvalues:
       0.500  0.500  0.500
     eigenvectors (columns):
       1.000  0.000  0.000
       0.000  1.000  0.000
       0.000  0.000  1.000
     occupation matrix ns (before diag.):
       0.500  0.000  0.000
       0.000  0.500  0.000
       0.000  0.000  0.500
     ------------------------ ATOM   57 ------------------------
     Tr[ns( 57)] =   1.00000
     eigenvalues:
       0.167  0.167  0.167
     eigenvectors (columns):
       1.000  0.000  0.000
       0.000  1.000  0.000
       0.000  0.000  1.000
     occupation matrix ns (before diag.):
       0.167  0.000  0.000
       0.000  0.167  0.000
       0.000  0.000  0.167
     ------------------------ ATOM   58 ------------------------
     Tr[ns( 58)] =   1.00000
     eigenvalues:
       0.167  0.167  0.167
     eigenvectors (columns):
       1.000  0.000  0.000
       0.000  1.000  0.000
       0.000  0.000  1.000
     occupation matrix ns (before diag.):
       0.167  0.000  0.000
       0.000  0.167  0.000
       0.000  0.000  0.167
     ------------------------ ATOM   59 ------------------------
     Tr[ns( 59)] =   1.00000
     eigenvalues:
       0.167  0.167  0.167
     eigenvectors (columns):
       1.000  0.000  0.000
       0.000  1.000  0.000
       0.000  0.000  1.000
     occupation matrix ns (before diag.):
       0.167  0.000  0.000
       0.000  0.167  0.000
       0.000  0.000  0.167
     ------------------------ ATOM   60 ------------------------
     Tr[ns( 60)] =   1.00000
     eigenvalues:
       0.167  0.167  0.167
     eigenvectors (columns):
       1.000  0.000  0.000
       0.000  1.000  0.000
       0.000  0.000  1.000
     occupation matrix ns (before diag.):
       0.167  0.000  0.000
       0.000  0.167  0.000
       0.000  0.000  0.167
     ------------------------ ATOM   61 ------------------------
     Tr[ns( 61)] =   3.00000
     eigenvalues:
       0.500  0.500  0.500
     eigenvectors (columns):
       1.000  0.000  0.000
       0.000  1.000  0.000
       0.000  0.000  1.000
     occupation matrix ns (before diag.):
       0.500  0.000  0.000
       0.000  0.500  0.000
       0.000  0.000  0.500
     ------------------------ ATOM   62 ------------------------
     Tr[ns( 62)] =   3.00000
     eigenvalues:
       0.500  0.500  0.500
     eigenvectors (columns):
       1.000  0.000  0.000
       0.000  1.000  0.000
       0.000  0.000  1.000
     occupation matrix ns (before diag.):
       0.500  0.000  0.000
       0.000  0.500  0.000
       0.000  0.000  0.500
     ------------------------ ATOM   63 ------------------------
     Tr[ns( 63)] =   3.00000
     eigenvalues:
       0.500  0.500  0.500
     eigenvectors (columns):
       1.000  0.000  0.000
       0.000  1.000  0.000
       0.000  0.000  1.000
     occupation matrix ns (before diag.):
       0.500  0.000  0.000
       0.000  0.500  0.000
       0.000  0.000  0.500
     ------------------------ ATOM   64 ------------------------
     Tr[ns( 64)] =   3.00000
     eigenvalues:
       0.500  0.500  0.500
     eigenvectors (columns):
       1.000  0.000  0.000
       0.000  1.000  0.000
       0.000  0.000  1.000
     occupation matrix ns (before diag.):
       0.500  0.000  0.000
       0.000  0.500  0.000
       0.000  0.000  0.500
     ------------------------ ATOM   65 ------------------------
     Tr[ns( 65)] =   1.00000
     eigenvalues:
       0.167  0.167  0.167
     eigenvectors (columns):
       1.000  0.000  0.000
       0.000  1.000  0.000
       0.000  0.000  1.000
     occupation matrix ns (before diag.):
       0.167  0.000  0.000
       0.000  0.167  0.000
       0.000  0.000  0.167
     ------------------------ ATOM   66 ------------------------
     Tr[ns( 66)] =   1.00000
     eigenvalues:
       0.167  0.167  0.167
     eigenvectors (columns):
       1.000  0.000  0.000
       0.000  1.000  0.000
       0.000  0.000  1.000
     occupation matrix ns (before diag.):
       0.167  0.000  0.000
       0.000  0.167  0.000
       0.000  0.000  0.167
     ------------------------ ATOM   67 ------------------------
     Tr[ns( 67)] =   1.00000
     eigenvalues:
       0.167  0.167  0.167
     eigenvectors (columns):
       1.000  0.000  0.000
       0.000  1.000  0.000
       0.000  0.000  1.000
     occupation matrix ns (before diag.):
       0.167  0.000  0.000
       0.000  0.167  0.000
       0.000  0.000  0.167
     ------------------------ ATOM   68 ------------------------
     Tr[ns( 68)] =   1.00000
     eigenvalues:
       0.167  0.167  0.167
     eigenvectors (columns):
       1.000  0.000  0.000
       0.000  1.000  0.000
       0.000  0.000  1.000
     occupation matrix ns (before diag.):
       0.167  0.000  0.000
       0.000  0.167  0.000
       0.000  0.000  0.167
     ------------------------ ATOM   69 ------------------------
     Tr[ns( 69)] =   3.00000
     eigenvalues:
       0.500  0.500  0.500
     eigenvectors (columns):
       1.000  0.000  0.000
       0.000  1.000  0.000
       0.000  0.000  1.000
     occupation matrix ns (before diag.):
       0.500  0.000  0.000
       0.000  0.500  0.000
       0.000  0.000  0.500
     ------------------------ ATOM   70 ------------------------
     Tr[ns( 70)] =   3.00000
     eigenvalues:
       0.500  0.500  0.500
     eigenvectors (columns):
       1.000  0.000  0.000
       0.000  1.000  0.000
       0.000  0.000  1.000
     occupation matrix ns (before diag.):
       0.500  0.000  0.000
       0.000  0.500  0.000
       0.000  0.000  0.500
     ------------------------ ATOM   71 ------------------------
     Tr[ns( 71)] =   3.00000
     eigenvalues:
       0.500  0.500  0.500
     eigenvectors (columns):
       1.000  0.000  0.000
       0.000  1.000  0.000
       0.000  0.000  1.000
     occupation matrix ns (before diag.):
       0.500  0.000  0.000
       0.000  0.500  0.000
       0.000  0.000  0.500
     ------------------------ ATOM   72 ------------------------
     Tr[ns( 72)] =   3.00000
     eigenvalues:
       0.500  0.500  0.500
     eigenvectors (columns):
       1.000  0.000  0.000
       0.000  1.000  0.000
       0.000  0.000  1.000
     occupation matrix ns (before diag.):
       0.500  0.000  0.000
       0.000  0.500  0.000
       0.000  0.000  0.500
     ------------------------ ATOM   73 ------------------------
     Tr[ns( 73)] =   1.00000
     eigenvalues:
       0.167  0.167  0.167
     eigenvectors (columns):
       1.000  0.000  0.000
       0.000  1.000  0.000
       0.000  0.000  1.000
     occupation matrix ns (before diag.):
       0.167  0.000  0.000
       0.000  0.167  0.000
       0.000  0.000  0.167
     ------------------------ ATOM   74 ------------------------
     Tr[ns( 74)] =   1.00000
     eigenvalues:
       0.167  0.167  0.167
     eigenvectors (columns):
       1.000  0.000  0.000
       0.000  1.000  0.000
       0.000  0.000  1.000
     occupation matrix ns (before diag.):
       0.167  0.000  0.000
       0.000  0.167  0.000
       0.000  0.000  0.167
     ------------------------ ATOM   75 ------------------------
     Tr[ns( 75)] =   1.00000
     eigenvalues:
       0.167  0.167  0.167
     eigenvectors (columns):
       1.000  0.000  0.000
       0.000  1.000  0.000
       0.000  0.000  1.000
     occupation matrix ns (before diag.):
       0.167  0.000  0.000
       0.000  0.167  0.000
       0.000  0.000  0.167
     ------------------------ ATOM   76 ------------------------
     Tr[ns( 76)] =   1.00000
     eigenvalues:
       0.167  0.167  0.167
     eigenvectors (columns):
       1.000  0.000  0.000
       0.000  1.000  0.000
       0.000  0.000  1.000
     occupation matrix ns (before diag.):
       0.167  0.000  0.000
       0.000  0.167  0.000
       0.000  0.000  0.167
     ------------------------ ATOM   77 ------------------------
     Tr[ns( 77)] =   3.00000
     eigenvalues:
       0.500  0.500  0.500
     eigenvectors (columns):
       1.000  0.000  0.000
       0.000  1.000  0.000
       0.000  0.000  1.000
     occupation matrix ns (before diag.):
       0.500  0.000  0.000
       0.000  0.500  0.000
       0.000  0.000  0.500
     ------------------------ ATOM   78 ------------------------
     Tr[ns( 78)] =   3.00000
     eigenvalues:
       0.500  0.500  0.500
     eigenvectors (columns):
       1.000  0.000  0.000
       0.000  1.000  0.000
       0.000  0.000  1.000
     occupation matrix ns (before diag.):
       0.500  0.000  0.000
       0.000  0.500  0.000
       0.000  0.000  0.500
     ------------------------ ATOM   79 ------------------------
     Tr[ns( 79)] =   3.00000
     eigenvalues:
       0.500  0.500  0.500
     eigenvectors (columns):
       1.000  0.000  0.000
       0.000  1.000  0.000
       0.000  0.000  1.000
     occupation matrix ns (before diag.):
       0.500  0.000  0.000
       0.000  0.500  0.000
       0.000  0.000  0.500
     ------------------------ ATOM   80 ------------------------
     Tr[ns( 80)] =   3.00000
     eigenvalues:
       0.500  0.500  0.500
     eigenvectors (columns):
       1.000  0.000  0.000
       0.000  1.000  0.000
       0.000  0.000  1.000
     occupation matrix ns (before diag.):
       0.500  0.000  0.000
       0.000  0.500  0.000
       0.000  0.000  0.500
     ------------------------ ATOM   81 ------------------------
     Tr[ns( 81)] =   1.00000
     eigenvalues:
       0.167  0.167  0.167
     eigenvectors (columns):
       1.000  0.000  0.000
       0.000  1.000  0.000
       0.000  0.000  1.000
     occupation matrix ns (before diag.):
       0.167  0.000  0.000
       0.000  0.167  0.000
       0.000  0.000  0.167
     ------------------------ ATOM   82 ------------------------
     Tr[ns( 82)] =   1.00000
     eigenvalues:
       0.167  0.167  0.167
     eigenvectors (columns):
       1.000  0.000  0.000
       0.000  1.000  0.000
       0.000  0.000  1.000
     occupation matrix ns (before diag.):
       0.167  0.000  0.000
       0.000  0.167  0.000
       0.000  0.000  0.167
     ------------------------ ATOM   83 ------------------------
     Tr[ns( 83)] =   1.00000
     eigenvalues:
       0.167  0.167  0.167
     eigenvectors (columns):
       1.000  0.000  0.000
       0.000  1.000  0.000
       0.000  0.000  1.000
     occupation matrix ns (before diag.):
       0.167  0.000  0.000
       0.000  0.167  0.000
       0.000  0.000  0.167
     ------------------------ ATOM   84 ------------------------
     Tr[ns( 84)] =   1.00000
     eigenvalues:
       0.167  0.167  0.167
     eigenvectors (columns):
       1.000  0.000  0.000
       0.000  1.000  0.000
       0.000  0.000  1.000
     occupation matrix ns (before diag.):
       0.167  0.000  0.000
       0.000  0.167  0.000
       0.000  0.000  0.167
     ------------------------ ATOM   85 ------------------------
     Tr[ns( 85)] =   3.00000
     eigenvalues:
       0.500  0.500  0.500
     eigenvectors (columns):
       1.000  0.000  0.000
       0.000  1.000  0.000
       0.000  0.000  1.000
     occupation matrix ns (before diag.):
       0.500  0.000  0.000
       0.000  0.500  0.000
       0.000  0.000  0.500
     ------------------------ ATOM   86 ------------------------
     Tr[ns( 86)] =   3.00000
     eigenvalues:
       0.500  0.500  0.500
     eigenvectors (columns):
       1.000  0.000  0.000
       0.000  1.000  0.000
       0.000  0.000  1.000
     occupation matrix ns (before diag.):
       0.500  0.000  0.000
       0.000  0.500  0.000
       0.000  0.000  0.500
     ------------------------ ATOM   87 ------------------------
     Tr[ns( 87)] =   3.00000
     eigenvalues:
       0.500  0.500  0.500
     eigenvectors (columns):
       1.000  0.000  0.000
       0.000  1.000  0.000
       0.000  0.000  1.000
     occupation matrix ns (before diag.):
       0.500  0.000  0.000
       0.000  0.500  0.000
       0.000  0.000  0.500
     ------------------------ ATOM   88 ------------------------
     Tr[ns( 88)] =   3.00000
     eigenvalues:
       0.500  0.500  0.500
     eigenvectors (columns):
       1.000  0.000  0.000
       0.000  1.000  0.000
       0.000  0.000  1.000
     occupation matrix ns (before diag.):
       0.500  0.000  0.000
       0.000  0.500  0.000
       0.000  0.000  0.500
     ------------------------ ATOM   89 ------------------------
     Tr[ns( 89)] =   1.00000
     eigenvalues:
       0.167  0.167  0.167
     eigenvectors (columns):
       1.000  0.000  0.000
       0.000  1.000  0.000
       0.000  0.000  1.000
     occupation matrix ns (before diag.):
       0.167  0.000  0.000
       0.000  0.167  0.000
       0.000  0.000  0.167
     ------------------------ ATOM   90 ------------------------
     Tr[ns( 90)] =   1.00000
     eigenvalues:
       0.167  0.167  0.167
     eigenvectors (columns):
       1.000  0.000  0.000
       0.000  1.000  0.000
       0.000  0.000  1.000
     occupation matrix ns (before diag.):
       0.167  0.000  0.000
       0.000  0.167  0.000
       0.000  0.000  0.167
     ------------------------ ATOM   91 ------------------------
     Tr[ns( 91)] =   1.00000
     eigenvalues:
       0.167  0.167  0.167
     eigenvectors (columns):
       1.000  0.000  0.000
       0.000  1.000  0.000
       0.000  0.000  1.000
     occupation matrix ns (before diag.):
       0.167  0.000  0.000
       0.000  0.167  0.000
       0.000  0.000  0.167
     ------------------------ ATOM   92 ------------------------
     Tr[ns( 92)] =   1.00000
     eigenvalues:
       0.167  0.167  0.167
     eigenvectors (columns):
       1.000  0.000  0.000
       0.000  1.000  0.000
       0.000  0.000  1.000
     occupation matrix ns (before diag.):
       0.167  0.000  0.000
       0.000  0.167  0.000
       0.000  0.000  0.167
     ------------------------ ATOM   93 ------------------------
     Tr[ns( 93)] =   3.00000
     eigenvalues:
       0.500  0.500  0.500
     eigenvectors (columns):
       1.000  0.000  0.000
       0.000  1.000  0.000
       0.000  0.000  1.000
     occupation matrix ns (before diag.):
       0.500  0.000  0.000
       0.000  0.500  0.000
       0.000  0.000  0.500
     ------------------------ ATOM   94 ------------------------
     Tr[ns( 94)] =   3.00000
     eigenvalues:
       0.500  0.500  0.500
     eigenvectors (columns):
       1.000  0.000  0.000
       0.000  1.000  0.000
       0.000  0.000  1.000
     occupation matrix ns (before diag.):
       0.500  0.000  0.000
       0.000  0.500  0.000
       0.000  0.000  0.500
     ------------------------ ATOM   95 ------------------------
     Tr[ns( 95)] =   3.00000
     eigenvalues:
       0.500  0.500  0.500
     eigenvectors (columns):
       1.000  0.000  0.000
       0.000  1.000  0.000
       0.000  0.000  1.000
     occupation matrix ns (before diag.):
       0.500  0.000  0.000
       0.000  0.500  0.000
       0.000  0.000  0.500
     ------------------------ ATOM   96 ------------------------
     Tr[ns( 96)] =   3.00000
     eigenvalues:
       0.500  0.500  0.500
     eigenvectors (columns):
       1.000  0.000  0.000
       0.000  1.000  0.000
       0.000  0.000  1.000
     occupation matrix ns (before diag.):
       0.500  0.000  0.000
       0.000  0.500  0.000
       0.000  0.000  0.500
     ------------------------ ATOM   97 ------------------------
     Tr[ns( 97)] =   1.00000
     eigenvalues:
       0.167  0.167  0.167
     eigenvectors (columns):
       1.000  0.000  0.000
       0.000  1.000  0.000
       0.000  0.000  1.000
     occupation matrix ns (before diag.):
       0.167  0.000  0.000
       0.000  0.167  0.000
       0.000  0.000  0.167
     ------------------------ ATOM   98 ------------------------
     Tr[ns( 98)] =   1.00000
     eigenvalues:
       0.167  0.167  0.167
     eigenvectors (columns):
       1.000  0.000  0.000
       0.000  1.000  0.000
       0.000  0.000  1.000
     occupation matrix ns (before diag.):
       0.167  0.000  0.000
       0.000  0.167  0.000
       0.000  0.000  0.167
     ------------------------ ATOM   99 ------------------------
     Tr[ns( 99)] =   1.00000
     eigenvalues:
       0.167  0.167  0.167
     eigenvectors (columns):
       1.000  0.000  0.000
       0.000  1.000  0.000
       0.000  0.000  1.000
     occupation matrix ns (before diag.):
       0.167  0.000  0.000
       0.000  0.167  0.000
       0.000  0.000  0.167
     ------------------------ ATOM  100 ------------------------
     Tr[ns(100)] =   1.00000
     eigenvalues:
       0.167  0.167  0.167
     eigenvectors (columns):
       1.000  0.000  0.000
       0.000  1.000  0.000
       0.000  0.000  1.000
     occupation matrix ns (before diag.):
       0.167  0.000  0.000
       0.000  0.167  0.000
       0.000  0.000  0.167
     ------------------------ ATOM  101 ------------------------
     Tr[ns(101)] =   3.00000
     eigenvalues:
       0.500  0.500  0.500
     eigenvectors (columns):
       1.000  0.000  0.000
       0.000  1.000  0.000
       0.000  0.000  1.000
     occupation matrix ns (before diag.):
       0.500  0.000  0.000
       0.000  0.500  0.000
       0.000  0.000  0.500
     ------------------------ ATOM  102 ------------------------
     Tr[ns(102)] =   3.00000
     eigenvalues:
       0.500  0.500  0.500
     eigenvectors (columns):
       1.000  0.000  0.000
       0.000  1.000  0.000
       0.000  0.000  1.000
     occupation matrix ns (before diag.):
       0.500  0.000  0.000
       0.000  0.500  0.000
       0.000  0.000  0.500
     ------------------------ ATOM  103 ------------------------
     Tr[ns(103)] =   3.00000
     eigenvalues:
       0.500  0.500  0.500
     eigenvectors (columns):
       1.000  0.000  0.000
       0.000  1.000  0.000
       0.000  0.000  1.000
     occupation matrix ns (before diag.):
       0.500  0.000  0.000
       0.000  0.500  0.000
       0.000  0.000  0.500
     ------------------------ ATOM  104 ------------------------
     Tr[ns(104)] =   3.00000
     eigenvalues:
       0.500  0.500  0.500
     eigenvectors (columns):
       1.000  0.000  0.000
       0.000  1.000  0.000
       0.000  0.000  1.000
     occupation matrix ns (before diag.):
       0.500  0.000  0.000
       0.000  0.500  0.000
       0.000  0.000  0.500
     ------------------------ ATOM  105 ------------------------
     Tr[ns(105)] =   1.00000
     eigenvalues:
       0.167  0.167  0.167
     eigenvectors (columns):
       1.000  0.000  0.000
       0.000  1.000  0.000
       0.000  0.000  1.000
     occupation matrix ns (before diag.):
       0.167  0.000  0.000
       0.000  0.167  0.000
       0.000  0.000  0.167
     ------------------------ ATOM  106 ------------------------
     Tr[ns(106)] =   1.00000
     eigenvalues:
       0.167  0.167  0.167
     eigenvectors (columns):
       1.000  0.000  0.000
       0.000  1.000  0.000
       0.000  0.000  1.000
     occupation matrix ns (before diag.):
       0.167  0.000  0.000
       0.000  0.167  0.000
       0.000  0.000  0.167
     ------------------------ ATOM  107 ------------------------
     Tr[ns(107)] =   1.00000
     eigenvalues:
       0.167  0.167  0.167
     eigenvectors (columns):
       1.000  0.000  0.000
       0.000  1.000  0.000
       0.000  0.000  1.000
     occupation matrix ns (before diag.):
       0.167  0.000  0.000
       0.000  0.167  0.000
       0.000  0.000  0.167
     ------------------------ ATOM  108 ------------------------
     Tr[ns(108)] =   1.00000
     eigenvalues:
       0.167  0.167  0.167
     eigenvectors (columns):
       1.000  0.000  0.000
       0.000  1.000  0.000
       0.000  0.000  1.000
     occupation matrix ns (before diag.):
       0.167  0.000  0.000
       0.000  0.167  0.000
       0.000  0.000  0.167
     ------------------------ ATOM  109 ------------------------
     Tr[ns(109)] =   3.00000
     eigenvalues:
       0.500  0.500  0.500
     eigenvectors (columns):
       1.000  0.000  0.000
       0.000  1.000  0.000
       0.000  0.000  1.000
     occupation matrix ns (before diag.):
       0.500  0.000  0.000
       0.000  0.500  0.000
       0.000  0.000  0.500
     ------------------------ ATOM  110 ------------------------
     Tr[ns(110)] =   3.00000
     eigenvalues:
       0.500  0.500  0.500
     eigenvectors (columns):
       1.000  0.000  0.000
       0.000  1.000  0.000
       0.000  0.000  1.000
     occupation matrix ns (before diag.):
       0.500  0.000  0.000
       0.000  0.500  0.000
       0.000  0.000  0.500
     ------------------------ ATOM  111 ------------------------
     Tr[ns(111)] =   3.00000
     eigenvalues:
       0.500  0.500  0.500
     eigenvectors (columns):
       1.000  0.000  0.000
       0.000  1.000  0.000
       0.000  0.000  1.000
     occupation matrix ns (before diag.):
       0.500  0.000  0.000
       0.000  0.500  0.000
       0.000  0.000  0.500
     ------------------------ ATOM  112 ------------------------
     Tr[ns(112)] =   3.00000
     eigenvalues:
       0.500  0.500  0.500
     eigenvectors (columns):
       1.000  0.000  0.000
       0.000  1.000  0.000
       0.000  0.000  1.000
     occupation matrix ns (before diag.):
       0.500  0.000  0.000
       0.000  0.500  0.000
       0.000  0.000  0.500
     ------------------------ ATOM  113 ------------------------
     Tr[ns(113)] =   1.00000
     eigenvalues:
       0.167  0.167  0.167
     eigenvectors (columns):
       1.000  0.000  0.000
       0.000  1.000  0.000
       0.000  0.000  1.000
     occupation matrix ns (before diag.):
       0.167  0.000  0.000
       0.000  0.167  0.000
       0.000  0.000  0.167
     ------------------------ ATOM  114 ------------------------
     Tr[ns(114)] =   1.00000
     eigenvalues:
       0.167  0.167  0.167
     eigenvectors (columns):
       1.000  0.000  0.000
       0.000  1.000  0.000
       0.000  0.000  1.000
     occupation matrix ns (before diag.):
       0.167  0.000  0.000
       0.000  0.167  0.000
       0.000  0.000  0.167
     ------------------------ ATOM  115 ------------------------
     Tr[ns(115)] =   1.00000
     eigenvalues:
       0.167  0.167  0.167
     eigenvectors (columns):
       1.000  0.000  0.000
       0.000  1.000  0.000
       0.000  0.000  1.000
     occupation matrix ns (before diag.):
       0.167  0.000  0.000
       0.000  0.167  0.000
       0.000  0.000  0.167
     ------------------------ ATOM  116 ------------------------
     Tr[ns(116)] =   1.00000
     eigenvalues:
       0.167  0.167  0.167
     eigenvectors (columns):
       1.000  0.000  0.000
       0.000  1.000  0.000
       0.000  0.000  1.000
     occupation matrix ns (before diag.):
       0.167  0.000  0.000
       0.000  0.167  0.000
       0.000  0.000  0.167
     ------------------------ ATOM  117 ------------------------
     Tr[ns(117)] =   3.00000
     eigenvalues:
       0.500  0.500  0.500
     eigenvectors (columns):
       1.000  0.000  0.000
       0.000  1.000  0.000
       0.000  0.000  1.000
     occupation matrix ns (before diag.):
       0.500  0.000  0.000
       0.000  0.500  0.000
       0.000  0.000  0.500
     ------------------------ ATOM  118 ------------------------
     Tr[ns(118)] =   3.00000
     eigenvalues:
       0.500  0.500  0.500
     eigenvectors (columns):
       1.000  0.000  0.000
       0.000  1.000  0.000
       0.000  0.000  1.000
     occupation matrix ns (before diag.):
       0.500  0.000  0.000
       0.000  0.500  0.000
       0.000  0.000  0.500
     ------------------------ ATOM  119 ------------------------
     Tr[ns(119)] =   3.00000
     eigenvalues:
       0.500  0.500  0.500
     eigenvectors (columns):
       1.000  0.000  0.000
       0.000  1.000  0.000
       0.000  0.000  1.000
     occupation matrix ns (before diag.):
       0.500  0.000  0.000
       0.000  0.500  0.000
       0.000  0.000  0.500
     ------------------------ ATOM  120 ------------------------
     Tr[ns(120)] =   3.00000
     eigenvalues:
       0.500  0.500  0.500
     eigenvectors (columns):
       1.000  0.000  0.000
       0.000  1.000  0.000
       0.000  0.000  1.000
     occupation matrix ns (before diag.):
       0.500  0.000  0.000
       0.000  0.500  0.000
       0.000  0.000  0.500
     ------------------------ ATOM  121 ------------------------
     Tr[ns(121)] =   1.00000
     eigenvalues:
       0.167  0.167  0.167
     eigenvectors (columns):
       1.000  0.000  0.000
       0.000  1.000  0.000
       0.000  0.000  1.000
     occupation matrix ns (before diag.):
       0.167  0.000  0.000
       0.000  0.167  0.000
       0.000  0.000  0.167
     ------------------------ ATOM  122 ------------------------
     Tr[ns(122)] =   1.00000
     eigenvalues:
       0.167  0.167  0.167
     eigenvectors (columns):
       1.000  0.000  0.000
       0.000  1.000  0.000
       0.000  0.000  1.000
     occupation matrix ns (before diag.):
       0.167  0.000  0.000
       0.000  0.167  0.000
       0.000  0.000  0.167
     ------------------------ ATOM  123 ------------------------
     Tr[ns(123)] =   1.00000
     eigenvalues:
       0.167  0.167  0.167
     eigenvectors (columns):
       1.000  0.000  0.000
       0.000  1.000  0.000
       0.000  0.000  1.000
     occupation matrix ns (before diag.):
       0.167  0.000  0.000
       0.000  0.167  0.000
       0.000  0.000  0.167
     ------------------------ ATOM  124 ------------------------
     Tr[ns(124)] =   1.00000
     eigenvalues:
       0.167  0.167  0.167
     eigenvectors (columns):
       1.000  0.000  0.000
       0.000  1.000  0.000
       0.000  0.000  1.000
     occupation matrix ns (before diag.):
       0.167  0.000  0.000
       0.000  0.167  0.000
       0.000  0.000  0.167
     ------------------------ ATOM  125 ------------------------
     Tr[ns(125)] =   3.00000
     eigenvalues:
       0.500  0.500  0.500
     eigenvectors (columns):
       1.000  0.000  0.000
       0.000  1.000  0.000
       0.000  0.000  1.000
     occupation matrix ns (before diag.):
       0.500  0.000  0.000
       0.000  0.500  0.000
       0.000  0.000  0.500
     ------------------------ ATOM  126 ------------------------
     Tr[ns(126)] =   3.00000
     eigenvalues:
       0.500  0.500  0.500
     eigenvectors (columns):
       1.000  0.000  0.000
       0.000  1.000  0.000
       0.000  0.000  1.000
     occupation matrix ns (before diag.):
       0.500  0.000  0.000
       0.000  0.500  0.000
       0.000  0.000  0.500
     ------------------------ ATOM  127 ------------------------
     Tr[ns(127)] =   3.00000
     eigenvalues:
       0.500  0.500  0.500
     eigenvectors (columns):
       1.000  0.000  0.000
       0.000  1.000  0.000
       0.000  0.000  1.000
     occupation matrix ns (before diag.):
       0.500  0.000  0.000
       0.000  0.500  0.000
       0.000  0.000  0.500
     ------------------------ ATOM  128 ------------------------
     Tr[ns(128)] =   3.00000
     eigenvalues:
       0.500  0.500  0.500
     eigenvectors (columns):
       1.000  0.000  0.000
       0.000  1.000  0.000
       0.000  0.000  1.000
     occupation matrix ns (before diag.):
       0.500  0.000  0.000
       0.000  0.500  0.000
       0.000  0.000  0.500
     ------------------------ ATOM  129 ------------------------
     Tr[ns(129)] =   1.00000
     eigenvalues:
       0.167  0.167  0.167
     eigenvectors (columns):
       1.000  0.000  0.000
       0.000  1.000  0.000
       0.000  0.000  1.000
     occupation matrix ns (before diag.):
       0.167  0.000  0.000
       0.000  0.167  0.000
       0.000  0.000  0.167
     ------------------------ ATOM  130 ------------------------
     Tr[ns(130)] =   1.00000
     eigenvalues:
       0.167  0.167  0.167
     eigenvectors (columns):
       1.000  0.000  0.000
       0.000  1.000  0.000
       0.000  0.000  1.000
     occupation matrix ns (before diag.):
       0.167  0.000  0.000
       0.000  0.167  0.000
       0.000  0.000  0.167
     ------------------------ ATOM  131 ------------------------
     Tr[ns(131)] =   1.00000
     eigenvalues:
       0.167  0.167  0.167
     eigenvectors (columns):
       1.000  0.000  0.000
       0.000  1.000  0.000
       0.000  0.000  1.000
     occupation matrix ns (before diag.):
       0.167  0.000  0.000
       0.000  0.167  0.000
       0.000  0.000  0.167
     ------------------------ ATOM  132 ------------------------
     Tr[ns(132)] =   1.00000
     eigenvalues:
       0.167  0.167  0.167
     eigenvectors (columns):
       1.000  0.000  0.000
       0.000  1.000  0.000
       0.000  0.000  1.000
     occupation matrix ns (before diag.):
       0.167  0.000  0.000
       0.000  0.167  0.000
       0.000  0.000  0.167
     ------------------------ ATOM  133 ------------------------
     Tr[ns(133)] =   3.00000
     eigenvalues:
       0.500  0.500  0.500
     eigenvectors (columns):
       1.000  0.000  0.000
       0.000  1.000  0.000
       0.000  0.000  1.000
     occupation matrix ns (before diag.):
       0.500  0.000  0.000
       0.000  0.500  0.000
       0.000  0.000  0.500
     ------------------------ ATOM  134 ------------------------
     Tr[ns(134)] =   3.00000
     eigenvalues:
       0.500  0.500  0.500
     eigenvectors (columns):
       1.000  0.000  0.000
       0.000  1.000  0.000
       0.000  0.000  1.000
     occupation matrix ns (before diag.):
       0.500  0.000  0.000
       0.000  0.500  0.000
       0.000  0.000  0.500
     ------------------------ ATOM  135 ------------------------
     Tr[ns(135)] =   3.00000
     eigenvalues:
       0.500  0.500  0.500
     eigenvectors (columns):
       1.000  0.000  0.000
       0.000  1.000  0.000
       0.000  0.000  1.000
     occupation matrix ns (before diag.):
       0.500  0.000  0.000
       0.000  0.500  0.000
       0.000  0.000  0.500
     ------------------------ ATOM  136 ------------------------
     Tr[ns(136)] =   3.00000
     eigenvalues:
       0.500  0.500  0.500
     eigenvectors (columns):
       1.000  0.000  0.000
       0.000  1.000  0.000
       0.000  0.000  1.000
     occupation matrix ns (before diag.):
       0.500  0.000  0.000
       0.000  0.500  0.000
       0.000  0.000  0.500
     ------------------------ ATOM  137 ------------------------
     Tr[ns(137)] =   1.00000
     eigenvalues:
       0.167  0.167  0.167
     eigenvectors (columns):
       1.000  0.000  0.000
       0.000  1.000  0.000
       0.000  0.000  1.000
     occupation matrix ns (before diag.):
       0.167  0.000  0.000
       0.000  0.167  0.000
       0.000  0.000  0.167
     ------------------------ ATOM  138 ------------------------
     Tr[ns(138)] =   1.00000
     eigenvalues:
       0.167  0.167  0.167
     eigenvectors (columns):
       1.000  0.000  0.000
       0.000  1.000  0.000
       0.000  0.000  1.000
     occupation matrix ns (before diag.):
       0.167  0.000  0.000
       0.000  0.167  0.000
       0.000  0.000  0.167
     ------------------------ ATOM  139 ------------------------
     Tr[ns(139)] =   1.00000
     eigenvalues:
       0.167  0.167  0.167
     eigenvectors (columns):
       1.000  0.000  0.000
       0.000  1.000  0.000
       0.000  0.000  1.000
     occupation matrix ns (before diag.):
       0.167  0.000  0.000
       0.000  0.167  0.000
       0.000  0.000  0.167
     ------------------------ ATOM  140 ------------------------
     Tr[ns(140)] =   1.00000
     eigenvalues:
       0.167  0.167  0.167
     eigenvectors (columns):
       1.000  0.000  0.000
       0.000  1.000  0.000
       0.000  0.000  1.000
     occupation matrix ns (before diag.):
       0.167  0.000  0.000
       0.000  0.167  0.000
       0.000  0.000  0.167
     ------------------------ ATOM  141 ------------------------
     Tr[ns(141)] =   3.00000
     eigenvalues:
       0.500  0.500  0.500
     eigenvectors (columns):
       1.000  0.000  0.000
       0.000  1.000  0.000
       0.000  0.000  1.000
     occupation matrix ns (before diag.):
       0.500  0.000  0.000
       0.000  0.500  0.000
       0.000  0.000  0.500
     ------------------------ ATOM  142 ------------------------
     Tr[ns(142)] =   3.00000
     eigenvalues:
       0.500  0.500  0.500
     eigenvectors (columns):
       1.000  0.000  0.000
       0.000  1.000  0.000
       0.000  0.000  1.000
     occupation matrix ns (before diag.):
       0.500  0.000  0.000
       0.000  0.500  0.000
       0.000  0.000  0.500
     ------------------------ ATOM  143 ------------------------
     Tr[ns(143)] =   3.00000
     eigenvalues:
       0.500  0.500  0.500
     eigenvectors (columns):
       1.000  0.000  0.000
       0.000  1.000  0.000
       0.000  0.000  1.000
     occupation matrix ns (before diag.):
       0.500  0.000  0.000
       0.000  0.500  0.000
       0.000  0.000  0.500
     ------------------------ ATOM  144 ------------------------
     Tr[ns(144)] =   3.00000
     eigenvalues:
       0.500  0.500  0.500
     eigenvectors (columns):
       1.000  0.000  0.000
       0.000  1.000  0.000
       0.000  0.000  1.000
     occupation matrix ns (before diag.):
       0.500  0.000  0.000
       0.000  0.500  0.000
       0.000  0.000  0.500
     ------------------------ ATOM  145 ------------------------
     Tr[ns(145)] =   1.00000
     eigenvalues:
       0.167  0.167  0.167
     eigenvectors (columns):
       1.000  0.000  0.000
       0.000  1.000  0.000
       0.000  0.000  1.000
     occupation matrix ns (before diag.):
       0.167  0.000  0.000
       0.000  0.167  0.000
       0.000  0.000  0.167
     ------------------------ ATOM  146 ------------------------
     Tr[ns(146)] =   1.00000
     eigenvalues:
       0.167  0.167  0.167
     eigenvectors (columns):
       1.000  0.000  0.000
       0.000  1.000  0.000
       0.000  0.000  1.000
     occupation matrix ns (before diag.):
       0.167  0.000  0.000
       0.000  0.167  0.000
       0.000  0.000  0.167
     ------------------------ ATOM  147 ------------------------
     Tr[ns(147)] =   1.00000
     eigenvalues:
       0.167  0.167  0.167
     eigenvectors (columns):
       1.000  0.000  0.000
       0.000  1.000  0.000
       0.000  0.000  1.000
     occupation matrix ns (before diag.):
       0.167  0.000  0.000
       0.000  0.167  0.000
       0.000  0.000  0.167
     ------------------------ ATOM  148 ------------------------
     Tr[ns(148)] =   1.00000
     eigenvalues:
       0.167  0.167  0.167
     eigenvectors (columns):
       1.000  0.000  0.000
       0.000  1.000  0.000
       0.000  0.000  1.000
     occupation matrix ns (before diag.):
       0.167  0.000  0.000
       0.000  0.167  0.000
       0.000  0.000  0.167
     ------------------------ ATOM  149 ------------------------
     Tr[ns(149)] =   3.00000
     eigenvalues:
       0.500  0.500  0.500
     eigenvectors (columns):
       1.000  0.000  0.000
       0.000  1.000  0.000
       0.000  0.000  1.000
     occupation matrix ns (before diag.):
       0.500  0.000  0.000
       0.000  0.500  0.000
       0.000  0.000  0.500
     ------------------------ ATOM  150 ------------------------
     Tr[ns(150)] =   3.00000
     eigenvalues:
       0.500  0.500  0.500
     eigenvectors (columns):
       1.000  0.000  0.000
       0.000  1.000  0.000
       0.000  0.000  1.000
     occupation matrix ns (before diag.):
       0.500  0.000  0.000
       0.000  0.500  0.000
       0.000  0.000  0.500
     ------------------------ ATOM  151 ------------------------
     Tr[ns(151)] =   3.00000
     eigenvalues:
       0.500  0.500  0.500
     eigenvectors (columns):
       1.000  0.000  0.000
       0.000  1.000  0.000
       0.000  0.000  1.000
     occupation matrix ns (before diag.):
       0.500  0.000  0.000
       0.000  0.500  0.000
       0.000  0.000  0.500
     ------------------------ ATOM  152 ------------------------
[...]
   -19.6971 -19.6969 -19.6969 -19.6968 -19.6968 -19.6966 -19.6966 -19.6964
   -19.6959 -19.6958 -19.6958 -19.6957 -19.6956 -19.6955 -19.6954 -19.6953
   -19.6953 -19.6952 -19.6950 -19.6947 -19.6947 -19.6946 -19.6945 -19.6945
   -19.6940 -19.6939 -19.6939 -19.6938 -19.6938 -19.6937 -19.6937 -19.6936
   -19.6934 -19.6933 -19.6931 -19.6930 -19.6928 -19.6926 -19.6925 -19.6925
   -19.6925 -19.6923 -19.6923 -19.6920 -19.6918 -19.6918 -19.6917 -19.6916
   -19.6916 -19.6915 -19.6914 -19.6913 -19.6911 -19.6910 -19.6909 -19.6908
   -19.6908 -19.6907 -19.6906 -19.6902 -19.6901 -19.6901 -19.6900 -19.6900
   -19.6899 -19.6898 -19.6898 -19.6896 -19.6893 -19.6892 -19.6892 -19.6891
   -19.6890 -19.6890 -19.6889 -19.6889 -19.6887 -19.6886 -19.6885 -19.6884
   -19.6884 -19.6883 -19.6882 -19.6882 -19.6882 -19.6879 -19.6877 -19.6875
   -19.6874 -19.6872 -19.6871 -19.6867 -19.6865 -19.6865 -19.6865 -19.6860
   -19.6856 -19.6856 -19.6856 -19.6855 -19.6853 -19.6849 -19.6848 -19.6846
   -19.6844 -19.6844 -19.6841 -19.6840 -19.6839 -19.6839 -19.6838 -19.6833
   -19.6832 -19.6828 -19.6825 -19.6824 -19.6823 -19.6817 -19.6817 -19.6814
   -19.6811 -19.6810 -19.6807 -19.6806 -19.6805 -19.6804 -19.6802 -19.6802
   -19.6801 -19.6801 -19.6792 -19.6790 -19.6788 -19.6787 -19.6786 -19.6785
   -19.6779 -19.6779 -19.6776 -19.6776 -19.6772 -19.6770 -19.6770 -19.6768
   -19.6763 -19.6759 -19.6759 -19.6757 -19.6757 -19.6755 -19.6755 -19.6752
   -19.6752 -19.6747 -19.6746 -19.6746 -19.6744 -19.6743 -19.6740 -19.6739
   -19.6737 -19.6736 -19.6734 -19.6733 -19.6731 -19.6730 -19.6729 -19.6725
   -19.6716 -19.6713 -19.6710 -19.6709 -19.6708 -19.6699 -19.6696 -19.6693
   -19.6693 -19.6684 -19.6684 -19.6677 -19.6677 -19.6672 -19.6666 -19.6665
   -19.6663 -19.6660 -19.6657 -19.6647 -19.6641 -19.6637 -19.6625 -19.6609
   -19.6605 -19.6591 -19.6579 -19.6574 -19.6572 -19.6547 -19.6541 -19.6528
   -19.6516 -19.6514 -19.6502 -19.6460  -7.5431  -7.5404  -7.5362  -7.4927
    -7.4883  -7.4449  -7.4396  -7.4373  -7.4328  -7.4312  -7.4301  -7.4228
    -7.4186  -7.4184  -7.4115  -7.4064  -7.4041  -7.4028  -7.4011  -7.3999
    -7.3997  -7.3951  -7.3949  -7.3946  -7.3923  -7.3911  -7.3902  -7.3899
    -7.3854  -7.3851  -7.3843  -7.3838  -7.3817  -7.3803  -7.3801  -7.3779
    -7.3776  -7.3772  -7.3753  -7.3747  -7.3746  -7.3741  -7.3727  -7.3720
    -7.3712  -7.3705  -7.3698  -7.3696  -7.3689  -7.3677  -7.3673  -7.3663
    -7.3661  -7.3656  -7.3650  -7.3643  -7.3629  -7.3626  -7.3608  -7.3605
    -7.3603  -7.3597  -7.3596  -7.3572  -7.3571  -7.3563  -7.3558  -7.3552
    -7.3547  -7.3540  -7.3533  -7.3530  -7.3523  -7.3521  -7.3517  -7.3506
    -7.3501  -7.3496  -7.3489  -7.3479  -7.3471  -7.3458  -7.3455  -7.3454
    -7.3453  -7.3445  -7.3442  -7.3438  -7.3430  -7.3426  -7.3418  -7.3411
    -7.3408  -7.3399  -7.3395  -7.3392  -7.3390  -7.3385  -7.3375  -7.3372
    -7.3370  -7.3363  -7.3358  -7.3353  -7.3350  -7.3345  -7.3338  -7.3336
    -7.3317  -7.3309  -7.3298  -7.3291  -7.3288  -7.3286  -7.3279  -7.3272
    -7.3267  -7.3263  -7.3260  -7.3255  -7.3249  -7.3244  -7.3240  -7.3239
    -7.3233  -7.3230  -7.3224  -7.3221  -7.3216  -7.3215  -7.3211  -7.3209
    -7.3199  -7.3194  -7.3189  -7.3182  -7.3180  -7.3177  -7.3175  -7.3172
    -7.3169  -7.3160  -7.3160  -7.3157  -7.3152  -7.3146  -7.3141  -7.3136
    -7.3132  -7.3130  -7.3128  -7.3122  -7.3119  -7.3115  -7.3109  -7.3107
    -7.3105  -7.3102  -7.3095  -7.3091  -7.3089  -7.3085  -7.3081  -7.3073
    -7.3066  -7.3064  -7.3062  -7.3059  -7.3056  -7.3052  -7.3049  -7.3046
    -7.3043  -7.3037  -7.3034  -7.3034  -7.3024  -7.3022  -7.3017  -7.3015
    -7.3014  -7.3007  -7.3001  -7.2996  -7.2991  -7.2983  -7.2981  -7.2978
    -7.2967  -7.2957  -7.2951  -7.2949  -7.2946  -7.2935  -7.2927  -7.2925
    -7.2918  -7.2916  -7.2904  -7.2902  -7.2898  -7.2891  -7.2888  -7.2883
    -7.2881  -7.2879  -7.2873  -7.2869  -7.2858  -7.2852  -7.2848  -7.2845
    -7.2840  -7.2836  -7.2831  -7.2828  -7.2814  -7.2808  -7.2805  -7.2801
    -7.2797  -7.2796  -7.2789  -7.2786  -7.2783  -7.2778  -7.2777  -7.2774
    -7.2770  -7.2766  -7.2765  -7.2762  -7.2758  -7.2756  -7.2754  -7.2748
    -7.2747  -7.2743  -7.2740  -7.2737  -7.2732  -7.2728  -7.2722  -7.2721
    -7.2714  -7.2712  -7.2707  -7.2700  -7.2700  -7.2690  -7.2689  -7.2685
    -7.2680  -7.2673  -7.2669  -7.2662  -7.2658  -7.2654  -7.2651  -7.2650
    -7.2646  -7.2644  -7.2637  -7.2634  -7.2632  -7.2631  -7.2629  -7.2623
    -7.2619  -7.2619  -7.2613  -7.2608  -7.2603  -7.2596  -7.2591  -7.2586
    -7.2584  -7.2581  -7.2577  -7.2576  -7.2574  -7.2572  -7.2568  -7.2568
    -7.2562  -7.2556  -7.2554  -7.2548  -7.2546  -7.2543  -7.2539  -7.2528
    -7.2526  -7.2523  -7.2517  -7.2515  -7.2514  -7.2512  -7.2509  -7.2505
    -7.2501  -7.2492  -7.2486  -7.2483  -7.2480  -7.2474  -7.2473  -7.2472
    -7.2469  -7.2463  -7.2458  -7.2452  -7.2449  -7.2442  -7.2442  -7.2441
    -7.2435  -7.2421  -7.2420  -7.2414  -7.2405  -7.2398  -7.2394  -7.2392
    -7.2385  -7.2380  -7.2378  -7.2369  -7.2365  -7.2362  -7.2355  -7.2354
    -7.2350  -7.2348  -7.2345  -7.2344  -7.2339  -7.2335  -7.2331  -7.2328
    -7.2325  -7.2324  -7.2321  -7.2318  -7.2317  -7.2315  -7.2304  -7.2303
    -7.2301  -7.2298  -7.2295  -7.2291  -7.2286  -7.2283  -7.2280  -7.2276
    -7.2270  -7.2268  -7.2264  -7.2261  -7.2254  -7.2253  -7.2248  -7.2244
    -7.2242  -7.2240  -7.2237  -7.2234  -7.2228  -7.2221  -7.2219  -7.2212
    -7.2210  -7.2206  -7.2198  -7.2183  -7.2180  -7.2175  -7.2171  -7.2169
    -7.2167  -7.2160  -7.2158  -7.2156  -7.2149  -7.2146  -7.2142  -7.2140
    -7.2138  -7.2136  -7.2135  -7.2129  -7.2128  -7.2124  -7.2121  -7.2120
    -7.2116  -7.2112  -7.2103  -7.2099  -7.2098  -7.2094  -7.2091  -7.2086
    -7.2081  -7.2079  -7.2075  -7.2070  -7.2064  -7.2061  -7.2061  -7.2058
    -7.2053  -7.2050  -7.2046  -7.2041  -7.2038  -7.2030  -7.2025  -7.2023
    -7.2014  -7.2013  -7.2008  -7.2007  -7.2005  -7.2001  -7.1993  -7.1982
    -7.1980  -7.1976  -7.1973  -7.1970  -7.1968  -7.1960  -7.1956  -7.1946
    -7.1945  -7.1944  -7.1940  -7.1936  -7.1929  -7.1929  -7.1925  -7.1920
    -7.1911  -7.1909  -7.1907  -7.1904  -7.1902  -7.1897  -7.1893  -7.1890
    -7.1887  -7.1882  -7.1877  -7.1870  -7.1869  -7.1865  -7.1863  -7.1861
    -7.1857  -7.1854  -7.1853  -7.1852  -7.1848  -7.1843  -7.1837  -7.1832
    -7.1824  -7.1815  -7.1813  -7.1811  -7.1808  -7.1799  -7.1794  -7.1785
    -7.1782  -7.1773  -7.1767  -7.1758  -7.1753  -7.1738  -7.1732  -7.1726
    -7.1722  -7.1718  -7.1711  -7.1709  -7.1705  -7.1704  -7.1699  -7.1689
    -7.1682  -7.1675  -7.1671  -7.1667  -7.1662  -7.1656  -7.1651  -7.1648
    -7.1645  -7.1642  -7.1641  -7.1627  -7.1625  -7.1617  -7.1610  -7.1606
    -7.1601  -7.1599  -7.1584  -7.1581  -7.1577  -7.1572  -7.1557  -7.1550
    -7.1545  -7.1529  -7.1502  -7.1477  -7.1459  -7.1447  -7.1440  -7.1439
    -7.1432  -7.1430  -7.1428  -7.1424  -7.1411  -7.1409  -7.1401  -7.1399
    -7.1392  -7.1385  -7.1281  -7.1260  -7.1234  -7.1232  -7.1000  -7.0981
    -3.5071  -3.4291  -3.3853  -3.3298  -3.2583  -3.2173  -3.2112  -3.1800
    -3.1293  -3.0998  -3.0672  -3.0533  -3.0255  -2.9425  -2.9059  -2.8753
    -2.8379  -2.8163  -2.7800  -2.7294  -2.7067  -2.6698  -2.6450  -2.6377
    -2.5752  -2.5626  -2.4933  -2.4843  -2.4720  -2.4452  -2.4218  -2.4131
    -2.3539  -2.3394  -2.3227  -2.3141  -2.2760  -2.2389  -2.2347  -2.2006
    -2.1630  -2.1321  -2.1107  -2.0858  -2.0576  -2.0440  -2.0338  -2.0285
    -2.0172  -1.9949  -1.9790  -1.9724  -1.9611  -1.9424  -1.9281  -1.9151
    -1.7742  -1.7519  -1.7213  -1.7044  -1.6878  -1.6432  -1.6343  -1.6044
    -1.5744  -1.5566  -1.5544  -1.5221  -1.5104  -1.5018  -1.4771  -1.4696
    -1.4560  -1.4377  -1.4323  -1.4172  -1.3995  -1.3724  -1.3616  -1.3327
    -1.2917  -1.2670  -1.2485  -1.2245  -1.2177  -1.1959  -1.1831  -1.1760
    -1.1483  -1.1257  -1.1086  -1.0878  -1.0782  -1.0451  -1.0343  -1.0261
    -0.9031  -0.8788  -0.8388  -0.8353  -0.8236  -0.8098  -0.7904  -0.7727
    -0.7529  -0.7134  -0.6983  -0.6506  -0.2542  -0.2518  -0.1849  -0.0386
     0.0580   0.0724   0.0956   0.1366   0.1590   0.1918   0.2222   0.2619
     0.2793   0.2885   0.3068   0.3288   0.3411   0.3461   0.3935   0.4213
     0.4288   0.4451   0.4799   0.4967   0.5303   0.5613   0.5880   0.5998
     0.6248   0.6365   0.6640   0.6719   0.6783   0.6979   0.7014   0.7106
     0.7352   0.7426   0.7571   0.7608   0.7795   0.7872   0.7917   0.7936
     0.8051   0.8150   0.8266   0.8351   0.8572   0.8638   0.8639   0.8751
     0.8866   0.9081   0.9166   0.9198   0.9413   0.9597   0.9711   0.9941
     1.4633   1.5248   1.5512   1.5900   1.6348   1.6534   1.6810   1.7345
     1.7409   1.7589   1.7800   1.8182   1.8463   1.8656   1.8948   1.9255
     1.9456   1.9497   1.9679   1.9781   1.9908   2.0036   2.0185   2.0404
     2.0459   2.0568   2.0832   2.1024   2.8904   2.9510   2.9968   3.0095
     3.0131   3.0358   3.0625   3.0639   3.0761   3.0964   3.1398   3.1458
     3.1619   3.1881   3.1928   3.2053   3.2924   3.3379   3.3634   3.3772
     3.3997   3.4159   3.4245   3.4349   3.4578   3.4715   3.4996   3.5128
     3.5206   3.5306   3.5404   3.5731   3.5798   3.6070   3.6198   3.6570
     3.6616   3.6790   3.6950   3.7068   3.7137   3.7249   3.7359   3.7538
     3.7765   3.7840   3.8029   3.8114   3.8201   3.8465   3.8561   3.8659
     3.8828   3.9070   3.9107   3.9252   3.9300   3.9447   3.9563   3.9674
     3.9811   3.9886   4.0113   4.0218   4.2339   4.2405   4.2626   4.3033
     4.3178   4.3556   4.3641   4.4112   4.4308   4.4327   4.4593   4.4712
     4.4839   4.5036   4.5144   4.5297   4.5496   4.5682   4.5859   4.5970
     4.6075   4.6173   4.6453   4.6546   4.6601   4.6692   4.6883   4.7054
     4.7392   4.7523   4.7580   4.7800   4.7939   4.8070   4.8221   4.8327
     4.8520   4.8644   4.8874   4.8966   4.9024   4.9157   4.9308   4.9556
     4.9689   4.9849   4.9937   5.0171   5.0373   5.0580   5.0664   5.0720
     5.0940   5.0977   5.1112   5.1186   5.1397   5.1504   5.1520   5.1673
     5.1752   5.1908   5.2072   5.2275   5.2321   5.2372   5.2454   5.2588
     5.2915   5.3101   5.3285   5.3392   5.3464   5.3654   5.3733   5.3855
     5.3995   5.4106   5.4211   5.4273   5.4545   5.4621   5.4731   5.4796
     5.4934   5.5237   5.5338   5.5465   5.5721   5.5973   5.6156   5.6197
     5.6278   5.6499   5.6540   5.6611   5.6982   5.7104   5.7309   5.7327
     5.7505   5.7520   5.7700   5.7927   5.7998   5.8088   5.8136   5.8214
     5.8388   5.8575   5.8817   5.8910   5.9470   5.9771   6.0142   6.0152
     6.0467   6.0602   6.0634   6.1057   6.1341   6.1506   6.1827   6.1905
     6.2170   6.2216   6.2399   6.2603   6.2777   6.3014   6.3170   6.3281
     6.3549   6.3636   6.3935   6.3981   6.4102   6.4132   6.4326   6.4524
     6.4630   6.4743   6.4863   6.4925   6.4975   6.5198   6.5282   6.5429
     6.5810   6.6028   6.6365   6.6575   6.6625   6.6848   6.7012   6.7088
     6.7173   6.7270   6.7320   6.7421   6.7613   6.7712   6.8086   6.8468
     6.9201   6.9540   6.9759   7.0332   7.4089   7.5002   7.5056   7.5657
     9.1255   9.1875   9.1904   9.2713   9.2750   9.2956   9.3397   9.3813
     9.4335   9.4498   9.4564   9.4956   9.5088   9.5216   9.5305   9.5324
     9.5523   9.5565   9.5771   9.5898   9.5977   9.6201   9.6225   9.6382
     9.6500   9.6969   9.7042   9.7104   9.7401   9.7520   9.7727   9.7868
     9.8069   9.8278   9.8436   9.8512   9.8596   9.8815   9.8860   9.9060
     9.9124   9.9399   9.9513   9.9609   9.9709   9.9813   9.9885  10.0041
    10.0177  10.0320  10.0463  10.0531  10.0574  10.0762  10.0827  10.0976
    10.1085  10.1387  10.1480  10.1602  10.1747  10.1882  10.2080  10.2284
    10.2329  10.2371  10.2664  10.2780  10.2793  10.2921  10.2936  10.3020
    10.3110  10.3154  10.3283  10.3359  10.3446  10.3582  10.3625  10.3695
    10.3784  10.3889  10.3958  10.4186  10.4291  10.4843  10.4971  10.5235
    10.5297  10.5447  10.5493  10.5580  10.5658  10.5830  10.5919  10.5991
    10.6018  10.6125  10.6233  10.6350  10.6598  10.6767  10.6894  10.6993
    10.7166  10.7221  10.7309  10.7570  11.0934  11.1071  11.1189  11.1789
    11.2685  11.2934  11.3052  11.3397  11.3497  11.3588  11.3682  11.3955
    11.4076  11.4152  11.4256  11.4470  11.4620  11.4690  11.4793  11.4978
    11.5122  11.5307  11.5419  11.5540  11.5588  11.5677  11.5786  11.5859
    11.5928  11.6003  11.6086  11.6187  11.6213  11.6371  11.6399  11.6442
    11.6593  11.6697  11.6749  11.6900  11.7077  11.7111  11.7338  11.7468
    11.9176  11.9293  11.9342  11.9380  11.9502  11.9543  11.9616  11.9716
    11.9856  11.9922  12.0047  12.0056  12.0223  12.0296  12.0391  12.0491
    12.1621  12.1806  12.1883  12.2047  12.2130  12.2190  12.2263  12.2411
    12.2481  12.2553  12.2564  12.2620  12.2649  12.2723  12.2862  12.2941
    12.3006  12.3087  12.3179  12.3375  12.3403  12.3429  12.3488  12.3643
    12.3684  12.3817  12.3933  12.4085  12.4163  12.4243  12.4274  12.4345
    12.4433  12.4502  12.4656  12.4777  12.4831  12.4911  12.4983  12.5108
    12.5121  12.5168  12.5215  12.5291  12.5387  12.5488  12.5565  12.5618
    12.5767  12.5832  12.6048  12.6093  12.6409  12.6670  12.6961  12.6988
    12.7148  12.7181  12.7374  12.7570  12.8686  12.8738  12.8817  12.8956
    12.9058  12.9178  12.9264  12.9404  13.0078  13.0173  13.0262  13.0385
    13.0558  13.0572  13.0605  13.0751  13.0797  13.0876  13.0911  13.0959
    13.1170  13.1205  13.1359  13.1467  13.1485  13.1545  13.1679  13.1775
    13.1831  13.1870  13.1927  13.2010  13.2106  13.2185  13.2276  13.2401
    13.2544  13.2690  13.2816  13.2979  13.3010  13.3231  13.3423  13.3507
    13.3576  13.3639  13.3843  13.3937  13.4092  13.4112  13.4262  13.4426
    13.4496  13.4751  13.4884  13.4992  13.5894  13.6129  13.6301  13.6342
    13.6399  13.6528  13.6566  13.6678  13.6745  13.6838  13.6913  13.6946
    13.7234  13.7270  13.7360  13.7434  13.7568  13.7803  13.7906  13.7942
    13.7991  13.8063  13.8196  13.8216  13.8364  13.8413  13.8530  13.8597
    13.8659  13.8774  13.8869  13.9002  13.9034  13.9129  13.9178  13.9268
    13.9338  13.9393  13.9448  13.9501  13.9564  13.9721  13.9866  13.9938
    13.9978  14.0183  14.0204  14.0264  14.0352  14.0425  14.0611  14.0630
    14.0752  14.0782  14.0839  14.0849  14.0963  14.1069  14.1157  14.1201
    14.1293  14.1331  14.1464  14.1548  14.1625  14.1686  14.1910  14.2117
    14.3426  14.3742  14.3845  14.3899  14.3990  14.4213  14.4336  14.4689
    14.6113  14.6387  14.6554  14.6826  14.6862  14.7113  14.7479  14.7727
    14.8561  14.8930  14.9152  14.9257  14.9276  14.9424  14.9590  14.9709
    14.9765  14.9957  15.0050  15.0171  15.0275  15.0443  15.0543  15.0663
    15.1817  15.2575  15.2788  15.2915  15.2916  15.3166  15.3351  15.3386
    15.3574  15.3695  15.3769  15.3866  15.3943  15.3992  15.4058  15.4103
    15.4156  15.4311  15.4371  15.4491  15.4516  15.4547  15.4719  15.4799
    15.4940  15.5075  15.5280  15.5476  15.5744  15.5842  15.5927  15.6124
    15.6208  15.6353  15.6547  15.6634  15.6655  15.6758  15.6877  15.6921
    15.7165  15.7355  15.7379  15.7541  15.8216  15.8358  15.8655  15.8791
    15.8844  15.8991  15.9222  15.9457  15.9648  15.9809  15.9886  16.0155
    16.0395  16.0411  16.0592  16.0810  16.1293  16.1541  16.1632  16.1808
    16.1996  16.2082  16.2172  16.2195  16.2315  16.2332  16.2395  16.2484
    16.2564  16.2692  16.2708  16.2774  16.2793  16.3008  16.3137  16.3275
    16.3388  16.3603  16.3762  16.4102  16.4668  16.4791  16.4941  16.5012
    16.5181  16.5294  16.5398  16.5615  16.5655  16.5702  16.5839  16.5847
    16.5996  16.6031  16.6105  16.6180  16.6241  16.6389  16.6454  16.6545
    16.6565  16.6606  16.6692  16.6821  16.6827  16.6951  16.7079  16.7177
    16.7253  16.7270  16.7483  16.7609  16.7713  16.7749  16.7881  16.7979
    16.8068  16.8134  16.8245  16.8503  16.8540  16.8661  16.8729  16.8851
    16.8964  16.9042  16.9144  16.9214  16.9298  16.9355  16.9484  16.9622
    16.9739  17.0083  17.0282  17.0309  17.0410  17.0523  17.0563  17.0606
    17.0657  17.0699  17.0842  17.0860  17.1042  17.1142  17.1173  17.1218
    17.1278  17.1295  17.1340  17.1391  17.1515  17.1554  17.1622  17.1645
    17.1662  17.1793  17.1868  17.1931  17.2002  17.2082  17.2208  17.2233
    17.2270  17.2339  17.2363  17.2465  17.2620  17.2706  17.2834  17.3071
    17.3792  17.3934  17.4205  17.4475  17.4665  17.4834  17.5020  17.5391
    17.6078  17.6284  17.6431  17.6474  17.6607  17.6720  17.6766  17.6921
    17.7078  17.7160  17.7216  17.7301  17.7330  17.7482  17.7552  17.7571
    17.7748  17.7839  17.7885  17.7968  17.8129  17.8178  17.8320  17.8517
    17.8955  17.9121  17.9188  17.9522  17.9599  17.9681  17.9866  17.9932
    17.9992  18.0171  18.0223  18.0447  18.0595  18.0815  18.1021  18.1086
    18.1206  18.1344  18.1402  18.1480  18.1961  18.2128  18.2224  18.2304
    18.2507  18.2647  18.3012  18.3148  18.3223  18.3728  18.3819  18.3976
    18.4194  18.4221  18.4375  18.4428  18.4532  18.4643  18.4806  18.4846
    18.4921  18.4993  18.5006  18.5156  18.5247  18.5335  18.5460  18.5537
    18.5667  18.5841  18.5889  18.5974  18.6112  18.6241  18.6400  18.6442

     highest occupied, lowest unoccupied level (ev):     7.6421    8.3627

!    total energy              =  -36980.90967082 Ry
     estimated scf accuracy    <       0.00000422 Ry

     The total energy is the sum of the following terms:
     one-electron contribution =  -18751.46520256 Ry
     hartree contribution      =   11368.71834892 Ry
     xc contribution           =   -9493.33043544 Ry
     ewald contribution        =  -20105.55402756 Ry
     Hubbard energy            =       0.72164583 Ry

     convergence has been achieved in  12 iterations

     Writing all to output data dir ./tmp_In0.0Ga1.0As0.25Sb0.75_cube_3x3x3.1/In0.0Ga1.0As0.25Sb0.75_cube_3x3x3.1.save/ :
     XML data file, charge density, pseudopotentials, collected wavefunctions

     init_run     :    240.01s CPU    242.47s WALL (       1 calls)
     electrons    :   9113.38s CPU   9134.66s WALL (       1 calls)

     Called by init_run:
     wfcinit      :    229.58s CPU    231.72s WALL (       1 calls)
     potinit      :      2.03s CPU      2.11s WALL (       1 calls)
     hinit0       :      1.75s CPU      1.78s WALL (       1 calls)

     Called by electrons:
     c_bands      :   8844.96s CPU   8865.07s WALL (      13 calls)
     sum_band     :    263.21s CPU    263.68s WALL (      13 calls)
     v_of_rho     :      3.35s CPU      3.50s WALL (      13 calls)
     mix_rho      :      0.80s CPU      0.81s WALL (      13 calls)

     Called by c_bands:
     init_us_2    :     32.86s CPU     33.40s WALL (      28 calls)
     cegterg      :   8536.21s CPU   8554.85s WALL (      13 calls)

     Called by *egterg:
     cdiaghg      :    848.43s CPU    849.18s WALL (     116 calls)
     h_psi        :   5017.46s CPU   5027.71s WALL (     118 calls)
     g_psi        :      4.28s CPU      4.28s WALL (     104 calls)

     Called by h_psi:
     h_psi:calbec :    892.71s CPU    892.76s WALL (     118 calls)
     vloc_psi     :    665.94s CPU    667.51s WALL (     118 calls)
     add_vuspsi   :    867.30s CPU    869.96s WALL (     118 calls)
     vhpsi        :   2583.09s CPU   2583.24s WALL (     118 calls)

     General routines
     calbec       :   1141.63s CPU   1141.69s WALL (     250 calls)
     fft          :      3.07s CPU      3.20s WALL (     131 calls)
     ffts         :      0.19s CPU      0.19s WALL (      13 calls)
     fftw         :    662.21s CPU    663.81s WALL (  162110 calls)

     Parallel routines

     Hubbard U routines
     new_ns       :     62.83s CPU     62.83s WALL (      13 calls)
     vhpsi        :   2583.09s CPU   2583.24s WALL (     118 calls)

     PWSCF        :      2h36m CPU      2h37m WALL


   This run was terminated on:  19:54:50  12Jun2025            

=------------------------------------------------------------------------------=
   JOB DONE.
=------------------------------------------------------------------------------=
