
     Program PWSCF v.7.3.1 starts on 28Jan2026 at  1:25:38 

     This program is part of the open-source Quantum ESPRESSO suite
     for quantum simulation of materials; please cite
         "P. Giannozzi et al., J. Phys.:Condens. Matter 21 395502 (2009);
         "P. Giannozzi et al., J. Phys.:Condens. Matter 29 465901 (2017);
         "P. Giannozzi et al., J. Chem. Phys. 152 154105 (2020);
          URL http://www.quantum-espresso.org", 
     in publications or presentations arising from this work. More details at
     http://www.quantum-espresso.org/quote

     Parallel version (MPI), running on   640 processors

     MPI processes distributed on     5 nodes
     421418 MiB available memory on the printing compute node when the environment starts

     Reading input from In1.0Ga0.0As0.5Sb0.5_cube_3x3x3.3.scf.in
Warning: card &CELL ignored
Warning: card   CELL_DOFREE = 'ALL', ignored
Warning: card / ignored

     Current dimensions of program PWSCF are:
     Max number of different atomic species (ntypx) = 10
     Max number of k-points (npk) =  40000
     Max angular momentum in pseudopotentials (lmaxx) =  4

     K-points division:     npool     =       8
     R & G space division:  proc/nbgrp/npool/nimage =      80
     Subspace diagonalization in iterative solution of the eigenvalue problem:
     one sub-group per band group will be used
     custom distributed-memory algorithm (size of sub-group:  8*  8 procs)


     Parallelization info
     --------------------
     sticks:   dense  smooth     PW     G-vecs:    dense   smooth      PW
     Min         610     610    157               101497   101497   13231
     Max         612     612    158               101501   101501   13235
     Sum       48857   48857  12565              8119937  8119937 1058635

     Using Slab Decomposition



     bravais-lattice index     =            1
     lattice parameter (alat)  =      35.7573  a.u.
     unit-cell volume          =   45718.5656 (a.u.)^3
     number of atoms/cell      =          216
     number of atomic types    =            4
     number of electrons       =      3024.00
     number of Kohn-Sham states=         2160
     kinetic-energy cutoff     =     120.0000  Ry
     charge density cutoff     =     480.0000  Ry
     scf convergence threshold =      1.0E-05
     mixing beta               =       0.6500
     number of iterations used =            8  plain     mixing
     Exchange-correlation= PBE
                           (   1   4   3   4   0   0   0)
     Hubbard projectors: atomic
     Hubbard parameters of DFT+U (Dudarev formulation) in eV:
     U(As-4p) =  3.2600
     U(Ga-4p) = -2.8000
     U(In-5p) = -1.0150
     U(Sb-5p) =  3.1600

     Internal variables: lda_plus_u =T, lda_plus_u_kind = 0

     celldm(1)=  35.757257  celldm(2)=   0.000000  celldm(3)=   0.000000
     celldm(4)=   0.000000  celldm(5)=   0.000000  celldm(6)=   0.000000

     crystal axes: (cart. coord. in units of alat)
               a(1) = (   1.000000   0.000000   0.000000 )  
               a(2) = (   0.000000   1.000000   0.000000 )  
               a(3) = (   0.000000   0.000000   1.000000 )  

     reciprocal axes: (cart. coord. in units 2 pi/alat)
               b(1) = (  1.000000  0.000000  0.000000 )  
               b(2) = (  0.000000  1.000000  0.000000 )  
               b(3) = (  0.000000  0.000000  1.000000 )  


     PseudoPot. # 1 for As read from file:
     /work/i254/i254/gentles/data/pseudos/As.pbe.NC-SR.standard.v0.5.UPF
     MD5 check sum: bfe1a874457ce592347346129958e7cf
     Pseudo is Norm-conserving + core correction, Zval = 15.0
     Generated using ONCVPSP code by D. R. Hamann
     Using radial grid of 1358 points,  6 beta functions with: 
                l(1) =   0
                l(2) =   0
                l(3) =   1
                l(4) =   1
                l(5) =   2
                l(6) =   2

     PseudoPot. # 2 for Ga read from file:
     /work/i254/i254/gentles/data/pseudos/Ga.pbe.NC-SR.standard.v0.5.UPF
     MD5 check sum: 2bb81bf6f0a8d9832cf3329850435ecf
     Pseudo is Norm-conserving + core correction, Zval = 13.0
     Generated using ONCVPSP code by D. R. Hamann
     Using radial grid of 1902 points,  6 beta functions with: 
                l(1) =   0
                l(2) =   0
                l(3) =   1
                l(4) =   1
                l(5) =   2
                l(6) =   2

     PseudoPot. # 3 for In read from file:
     /work/i254/i254/gentles/data/pseudos/In.pbe.NC-SR.standard.v0.5.UPF
     MD5 check sum: 835f4bf908c982ff75c88e16816a8d7f
     Pseudo is Norm-conserving + core correction, Zval = 13.0
     Generated using ONCVPSP code by D. R. Hamann
     Using radial grid of 1964 points,  6 beta functions with: 
                l(1) =   0
                l(2) =   0
                l(3) =   1
                l(4) =   1
                l(5) =   2
                l(6) =   2

     PseudoPot. # 4 for Sb read from file:
     /work/i254/i254/gentles/data/pseudos/Sb.pbe.NC-SR.standard.v0.5.UPF
     MD5 check sum: 127f69b6101c45666faeae1b5d611565
     Pseudo is Norm-conserving + core correction, Zval = 15.0
     Generated using ONCVPSP code by D. R. Hamann
     Using radial grid of 1434 points,  6 beta functions with: 
                l(1) =   0
                l(2) =   0
                l(3) =   1
                l(4) =   1
                l(5) =   2
                l(6) =   2

     atomic species   valence    mass     pseudopotential
     As               15.00    74.92160     As( 1.00)
     Ga               13.00    69.72300     Ga( 1.00)
     In               13.00   114.81800     In( 1.00)
     Sb               15.00   121.76000     Sb( 1.00)

     No symmetry found



   Cartesian axes

     site n.     atom                  positions (alat units)
         1        In     tau(   1) = (  -0.0042250   0.0044800   0.0023440  )
         2        In     tau(   2) = (   0.0001140   0.1646010   0.1590640  )
         3        In     tau(   3) = (   0.1650730  -0.0012280   0.1563980  )
         4        In     tau(   4) = (   0.1633550   0.1702610   0.0018030  )
         5        As     tau(   5) = (   0.0827600   0.0839850   0.0795310  )
         6        Sb     tau(   6) = (   0.0818550   0.2542160   0.2451090  )
         7        Sb     tau(   7) = (   0.2488780   0.0829350   0.2446720  )
         8        As     tau(   8) = (   0.2498010   0.2518130   0.0819270  )
         9        In     tau(   9) = (  -0.0041660  -0.0063730   0.3362380  )
        10        In     tau(  10) = (   0.0011170   0.1692650   0.4981840  )
        11        In     tau(  11) = (   0.1731100   0.0007060   0.5041280  )
        12        In     tau(  12) = (   0.1645800   0.1682700   0.3312010  )
        13        Sb     tau(  13) = (   0.0843580   0.0803140   0.4172590  )
        14        Sb     tau(  14) = (   0.0840640   0.2532640   0.5858240  )
        15        As     tau(  15) = (   0.2544920   0.0798770   0.5862780  )
        16        Sb     tau(  16) = (   0.2511680   0.2522690   0.4177780  )
        17        In     tau(  17) = (  -0.0005660  -0.0002220   0.6672960  )
        18        In     tau(  18) = (  -0.0035350   0.1694530   0.8384900  )
        19        In     tau(  19) = (   0.1722330  -0.0053430   0.8294470  )
        20        In     tau(  20) = (   0.1719060   0.1631940   0.6632780  )
        21        Sb     tau(  21) = (   0.0840320   0.0844350   0.7524230  )
        22        As     tau(  22) = (   0.0799380   0.2484540   0.9203860  )
        23        Sb     tau(  23) = (   0.2505670   0.0830820   0.9185710  )
        24        Sb     tau(  24) = (   0.2524720   0.2504350   0.7507100  )
        25        In     tau(  25) = (  -0.0009330   0.3267190   0.0035630  )
        26        In     tau(  26) = (   0.0000070   0.4989980   0.1732820  )
        27        In     tau(  27) = (   0.1779400   0.3362300   0.1671290  )
        28        In     tau(  28) = (   0.1693740   0.5085100   0.0022900  )
        29        Sb     tau(  29) = (   0.0857680   0.4173550   0.0846130  )
        30        As     tau(  30) = (   0.0871370   0.5811950   0.2472260  )
        31        As     tau(  31) = (   0.2558920   0.4209290   0.2480770  )
        32        As     tau(  32) = (   0.2538370   0.5860970   0.0841180  )
        33        In     tau(  33) = (  -0.0049980   0.3399160   0.3300000  )
        34        In     tau(  34) = (   0.0007840   0.5008230   0.5074760  )
        35        In     tau(  35) = (   0.1719500   0.3408360   0.5058240  )
        36        In     tau(  36) = (   0.1701730   0.5016410   0.3259430  )
        37        Sb     tau(  37) = (   0.0850200   0.4204580   0.4160350  )
        38        As     tau(  38) = (   0.0862240   0.5833450   0.5846230  )
        39        As     tau(  39) = (   0.2531470   0.4233290   0.5854820  )
        40        Sb     tau(  40) = (   0.2541690   0.5848640   0.4156230  )
        41        In     tau(  41) = (  -0.0073440   0.3334280   0.6713510  )
        42        In     tau(  42) = (   0.0065310   0.5054860   0.8377030  )
        43        In     tau(  43) = (   0.1625640   0.3284710   0.8398620  )
        44        In     tau(  44) = (   0.1724100   0.5058390   0.6658510  )
        45        Sb     tau(  45) = (   0.0858160   0.4180260   0.7499500  )
        46        As     tau(  46) = (   0.0894440   0.5848730   0.9173540  )
        47        Sb     tau(  47) = (   0.2512790   0.4194140   0.9169640  )
        48        As     tau(  48) = (   0.2540300   0.5849090   0.7502690  )
        49        In     tau(  49) = (   0.0059520   0.6626960  -0.0032750  )
        50        In     tau(  50) = (  -0.0058030   0.8365330   0.1598180  )
        51        In     tau(  51) = (   0.1720920   0.6623810   0.1696390  )
        52        In     tau(  52) = (   0.1764440   0.8298460  -0.0012870  )
        53        Sb     tau(  53) = (   0.0874000   0.7488260   0.0838020  )
        54        Sb     tau(  54) = (   0.0835700   0.9146700   0.2468320  )
        55        As     tau(  55) = (   0.2535770   0.7467000   0.2476520  )
        56        As     tau(  56) = (   0.2504490   0.9121190   0.0836230  )
        57        In     tau(  57) = (   0.0061880   0.6614860   0.3281410  )
        58        In     tau(  58) = (  -0.0078250   0.8331080   0.4980440  )
        59        In     tau(  59) = (   0.1693560   0.6663300   0.5069140  )
        60        In     tau(  60) = (   0.1726430   0.8278260   0.3280860  )
        61        Sb     tau(  61) = (   0.0846040   0.7487540   0.4172890  )
        62        Sb     tau(  62) = (   0.0847030   0.9133620   0.5833810  )
        63        As     tau(  63) = (   0.2556900   0.7467980   0.5849400  )
        64        Sb     tau(  64) = (   0.2546910   0.9129730   0.4175300  )
        65        In     tau(  65) = (   0.0019660   0.6677670   0.6579720  )
        66        In     tau(  66) = (   0.0021120   0.8313940   0.8345760  )
        67        In     tau(  67) = (   0.1738200   0.6626570   0.8365680  )
        68        In     tau(  68) = (   0.1777890   0.8315890   0.6659850  )
        69        Sb     tau(  69) = (   0.0889690   0.7473040   0.7490320  )
        70        Sb     tau(  70) = (   0.0855320   0.9167480   0.9201600  )
        71        As     tau(  71) = (   0.2547960   0.7464260   0.9164920  )
        72        As     tau(  72) = (   0.2553030   0.9143360   0.7485420  )
        73        In     tau(  73) = (   0.3305240  -0.0059900   0.0048380  )
        74        In     tau(  74) = (   0.3318810   0.1720000   0.1621920  )
        75        In     tau(  75) = (   0.5080250   0.0001620   0.1688240  )
        76        In     tau(  76) = (   0.5036870   0.1617730  -0.0055170  )
        77        Sb     tau(  77) = (   0.4186430   0.0815520   0.0838340  )
        78        Sb     tau(  78) = (   0.4188750   0.2536010   0.2499230  )
        79        As     tau(  79) = (   0.5871470   0.0831660   0.2496820  )
        80        Sb     tau(  80) = (   0.5853500   0.2476150   0.0817830  )
        81        In     tau(  81) = (   0.3360530  -0.0014090   0.3295100  )
        82        In     tau(  82) = (   0.3325120   0.1631760   0.5042230  )
        83        In     tau(  83) = (   0.5007740  -0.0118090   0.4999530  )
        84        In     tau(  84) = (   0.5087820   0.1664270   0.3325300  )
        85        Sb     tau(  85) = (   0.4207260   0.0813370   0.4169570  )
        86        Sb     tau(  86) = (   0.4170390   0.2545920   0.5841370  )
        87        Sb     tau(  87) = (   0.5818620   0.0815940   0.5834070  )
        88        As     tau(  88) = (   0.5854890   0.2504260   0.4152440  )
        89        In     tau(  89) = (   0.3363890  -0.0029670   0.6670790  )
        90        In     tau(  90) = (   0.3396260   0.1619900   0.8307480  )
        91        In     tau(  91) = (   0.5040040   0.0011780   0.8320310  )
        92        In     tau(  92) = (   0.4948480   0.1630470   0.6716140  )
        93        As     tau(  93) = (   0.4177050   0.0777700   0.7504230  )
        94        Sb     tau(  94) = (   0.4184910   0.2529720   0.9163620  )
        95        As     tau(  95) = (   0.5842440   0.0804630   0.9164980  )
        96        Sb     tau(  96) = (   0.5816500   0.2514900   0.7530390  )
        97        In     tau(  97) = (   0.3336810   0.3352670   0.0062750  )
        98        In     tau(  98) = (   0.3352670   0.5037060   0.1650550  )
        99        In     tau(  99) = (   0.4975310   0.3391890   0.1588600  )
       100        In     tau( 100) = (   0.4990420   0.5028260   0.0005290  )
       101        As     tau( 101) = (   0.4155530   0.4220300   0.0818960  )
       102        As     tau( 102) = (   0.4154820   0.5861650   0.2475190  )
       103        Sb     tau( 103) = (   0.5811530   0.4185050   0.2502350  )
       104        As     tau( 104) = (   0.5792560   0.5856550   0.0846720  )
       105        In     tau( 105) = (   0.3354490   0.3424970   0.3345440  )
       106        In     tau( 106) = (   0.3375050   0.4983610   0.5026720  )
       107        In     tau( 107) = (   0.5030040   0.3357820   0.4921030  )
       108        In     tau( 108) = (   0.4909570   0.5028740   0.3320060  )
       109        As     tau( 109) = (   0.4173060   0.4197760   0.4177270  )
       110        As     tau( 110) = (   0.4141590   0.5820390   0.5844310  )
       111        As     tau( 111) = (   0.5790750   0.4155810   0.5796710  )
       112        Sb     tau( 112) = (   0.5798930   0.5868650   0.4146590  )
       113        In     tau( 113) = (   0.3334880   0.3441920   0.6690500  )
       114        In     tau( 114) = (   0.3374810   0.5046490   0.8300230  )
       115        In     tau( 115) = (   0.4981760   0.3449060   0.8324500  )
       116        In     tau( 116) = (   0.4970210   0.4979360   0.6603100  )
       117        As     tau( 117) = (   0.4174500   0.4234270   0.7485260  )
       118        As     tau( 118) = (   0.4150610   0.5832830   0.9184380  )
       119        As     tau( 119) = (   0.5795370   0.4186380   0.9197560  )
       120        Sb     tau( 120) = (   0.5780810   0.5831630   0.7503540  )
       121        In     tau( 121) = (   0.3362010   0.6664640   0.0008250  )
       122        In     tau( 122) = (   0.3310530   0.8275790   0.1624890  )
       123        In     tau( 123) = (   0.4991130   0.6668650   0.1675400  )
       124        In     tau( 124) = (   0.4998530   0.8343800   0.0099220  )
       125        As     tau( 125) = (   0.4168740   0.7475800   0.0844800  )
       126        Sb     tau( 126) = (   0.4205800   0.9101540   0.2477280  )
       127        As     tau( 127) = (   0.5834200   0.7480770   0.2485160  )
       128        As     tau( 128) = (   0.5848790   0.9168360   0.0870880  )
       129        In     tau( 129) = (   0.3387960   0.6713450   0.3297470  )
       130        In     tau( 130) = (   0.3390390   0.8269900   0.5037580  )
       131        In     tau( 131) = (   0.4908740   0.6653160   0.5021190  )
       132        In     tau( 132) = (   0.5037160   0.8250260   0.3362620  )
       133        As     tau( 133) = (   0.4177270   0.7485410   0.4171080  )
       134        As     tau( 134) = (   0.4163940   0.9131770   0.5855140  )
       135        Sb     tau( 135) = (   0.5788270   0.7519150   0.5838730  )
       136        As     tau( 136) = (   0.5818840   0.9123400   0.4126040  )
       137        In     tau( 137) = (   0.3349210   0.6651210   0.6674230  )
       138        In     tau( 138) = (   0.3315870   0.8275010   0.8301810  )
       139        In     tau( 139) = (   0.4901790   0.6675320   0.8353380  )
       140        In     tau( 140) = (   0.4950020   0.8360410   0.6725570  )
       141        As     tau( 141) = (   0.4138730   0.7486310   0.7492120  )
       142        Sb     tau( 142) = (   0.4170570   0.9140260   0.9163140  )
       143        Sb     tau( 143) = (   0.5810350   0.7510540   0.9181580  )
       144        As     tau( 144) = (   0.5805350   0.9161090   0.7507620  )
       145        In     tau( 145) = (   0.6613790   0.0018220   0.0043560  )
       146        In     tau( 146) = (   0.6714980   0.1628870   0.1689460  )
       147        In     tau( 147) = (   0.8259290  -0.0048970   0.1630480  )
       148        In     tau( 148) = (   0.8300360   0.1665200   0.0035640  )
       149        As     tau( 149) = (   0.7477980   0.0816590   0.0831360  )
       150        As     tau( 150) = (   0.7498590   0.2494620   0.2468620  )
       151        Sb     tau( 151) = (   0.9144160   0.0802140   0.2466590  )
       152        As     tau( 152) = (   0.9143750   0.2470590   0.0837540  )
       153        In     tau( 153) = (   0.6609640  -0.0052140   0.3291200  )
       154        In     tau( 154) = (   0.6665090   0.1730920   0.5008600  )
       155        In     tau( 155) = (   0.8343880  -0.0021670   0.4967350  )
       156        In     tau( 156) = (   0.8281670   0.1687810   0.3279530  )
       157        Sb     tau( 157) = (   0.7454140   0.0821830   0.4140680  )
       158        As     tau( 158) = (   0.7486900   0.2535780   0.5828880  )
       159        Sb     tau( 159) = (   0.9144670   0.0862430   0.5831930  )
       160        Sb     tau( 160) = (   0.9130240   0.2524850   0.4152500  )
       161        In     tau( 161) = (   0.6638840  -0.0051020   0.6704830  )
       162        In     tau( 162) = (   0.6659520   0.1674300   0.8428520  )
       163        In     tau( 163) = (   0.8377850   0.0050240   0.8407900  )
       164        In     tau( 164) = (   0.8295040   0.1740720   0.6672650  )
       165        Sb     tau( 165) = (   0.7489100   0.0844910   0.7534500  )
       166        As     tau( 166) = (   0.7502500   0.2484550   0.9198850  )
       167        As     tau( 167) = (   0.9158410   0.0882850   0.9218530  )
       168        As     tau( 168) = (   0.9148030   0.2480480   0.7520970  )
       169        In     tau( 169) = (   0.6659130   0.3339620  -0.0065080  )
       170        In     tau( 170) = (   0.6633340   0.5085010   0.1670170  )
       171        In     tau( 171) = (   0.8357910   0.3297410   0.1681730  )
       172        In     tau( 172) = (   0.8353870   0.4984630   0.0004970  )
       173        Sb     tau( 173) = (   0.7478080   0.4167830   0.0851530  )
       174        As     tau( 174) = (   0.7475160   0.5856870   0.2481010  )
       175        As     tau( 175) = (   0.9131960   0.4177640   0.2480130  )
       176        Sb     tau( 176) = (   0.9175510   0.5847600   0.0860430  )
       177        In     tau( 177) = (   0.6667700   0.3263470   0.3304060  )
       178        In     tau( 178) = (   0.6599390   0.4986310   0.5016760  )
       179        In     tau( 179) = (   0.8330720   0.3364020   0.5066870  )
       180        In     tau( 180) = (   0.8298030   0.5005950   0.3252500  )
       181        Sb     tau( 181) = (   0.7477950   0.4160800   0.4156370  )
       182        Sb     tau( 182) = (   0.7502050   0.5847010   0.5823890  )
       183        As     tau( 183) = (   0.9178230   0.4158820   0.5858290  )
       184        Sb     tau( 184) = (   0.9160100   0.5826110   0.4151300  )
       185        In     tau( 185) = (   0.6621520   0.3332640   0.6585380  )
       186        In     tau( 186) = (   0.6600710   0.4970320   0.8379660  )
       187        In     tau( 187) = (   0.8310480   0.3245690   0.8332490  )
       188        In     tau( 188) = (   0.8368530   0.4968620   0.6654770  )
       189        Sb     tau( 189) = (   0.7466960   0.4138850   0.7496410  )
       190        Sb     tau( 190) = (   0.7468880   0.5839580   0.9193810  )
       191        Sb     tau( 191) = (   0.9187290   0.4132200   0.9148680  )
       192        Sb     tau( 192) = (   0.9181970   0.5868010   0.7497050  )
       193        In     tau( 193) = (   0.6638760   0.6680480   0.0082370  )
       194        In     tau( 194) = (   0.6640020   0.8328530   0.1686940  )
       195        In     tau( 195) = (   0.8248190   0.6685420   0.1665740  )
       196        In     tau( 196) = (   0.8304320   0.8319240   0.0083600  )
       197        As     tau( 197) = (   0.7450720   0.7515480   0.0874470  )
       198        As     tau( 198) = (   0.7456580   0.9151720   0.2487520  )
       199        Sb     tau( 199) = (   0.9143850   0.7507740   0.2501710  )
       200        As     tau( 200) = (   0.9125800   0.9193420   0.0816590  )
       201        In     tau( 201) = (   0.6692300   0.6699670   0.3285850  )
       202        In     tau( 202) = (   0.6636160   0.8313280   0.4911350  )
       203        In     tau( 203) = (   0.8310890   0.6745700   0.4953350  )
       204        In     tau( 204) = (   0.8276490   0.8375350   0.3342860  )
       205        As     tau( 205) = (   0.7478010   0.7522780   0.4121470  )
       206        Sb     tau( 206) = (   0.7487220   0.9118840   0.5813350  )
       207        As     tau( 207) = (   0.9155320   0.7489690   0.5804820  )
       208        As     tau( 208) = (   0.9123520   0.9146490   0.4161490  )
       209        In     tau( 209) = (   0.6671480   0.6698960   0.6702590  )
       210        In     tau( 210) = (   0.6648700   0.8348240   0.8279080  )
       211        In     tau( 211) = (   0.8259470   0.6709830   0.8300230  )
       212        In     tau( 212) = (   0.8329200   0.8246850   0.6657920  )
       213        As     tau( 213) = (   0.7469990   0.7521320   0.7491050  )
       214        Sb     tau( 214) = (   0.7481050   0.9173720   0.9194790  )
       215        Sb     tau( 215) = (   0.9144370   0.7485480   0.9191550  )
       216        Sb     tau( 216) = (   0.9143930   0.9147380   0.7515490  )

     number of k points=     8
                       cart. coord. in units 2pi/alat
        k(    1) = (   0.0000000   0.0000000   0.0000000), wk =   0.2500000
        k(    2) = (   0.0000000   0.0000000  -0.5000000), wk =   0.2500000
        k(    3) = (   0.0000000  -0.5000000  -0.5000000), wk =   0.2500000
        k(    4) = (  -0.5000000  -0.5000000  -0.5000000), wk =   0.2500000
        k(    5) = (  -0.5000000   0.0000000   0.0000000), wk =   0.2500000
        k(    6) = (   0.0000000  -0.5000000   0.0000000), wk =   0.2500000
        k(    7) = (  -0.5000000   0.0000000   0.5000000), wk =   0.2500000
        k(    8) = (  -0.5000000   0.5000000   0.0000000), wk =   0.2500000

     Dense  grid:  8119937 G-vectors     FFT dimensions: ( 250, 250, 250)

     Estimated max dynamical RAM per process >       3.11 GB

     Estimated total dynamical RAM >    1977.44 GB

     Initial potential from superposition of free atoms

     starting charge    3023.5361, renormalised to    3024.0000

     STARTING HUBBARD OCCUPATIONS:

     =================== HUBBARD OCCUPATIONS ===================
     ------------------------ ATOM    1 ------------------------
     Tr[ns(  1)] =   1.00000
     eigenvalues:
       0.167  0.167  0.167
     eigenvectors (columns):
       1.000  0.000  0.000
       0.000  1.000  0.000
       0.000  0.000  1.000
     occupation matrix ns (before diag.):
       0.167  0.000  0.000
       0.000  0.167  0.000
       0.000  0.000  0.167
     ------------------------ ATOM    2 ------------------------
     Tr[ns(  2)] =   1.00000
     eigenvalues:
       0.167  0.167  0.167
     eigenvectors (columns):
       1.000  0.000  0.000
       0.000  1.000  0.000
       0.000  0.000  1.000
     occupation matrix ns (before diag.):
       0.167  0.000  0.000
       0.000  0.167  0.000
       0.000  0.000  0.167
     ------------------------ ATOM    3 ------------------------
     Tr[ns(  3)] =   1.00000
     eigenvalues:
       0.167  0.167  0.167
     eigenvectors (columns):
       1.000  0.000  0.000
       0.000  1.000  0.000
       0.000  0.000  1.000
     occupation matrix ns (before diag.):
       0.167  0.000  0.000
       0.000  0.167  0.000
       0.000  0.000  0.167
     ------------------------ ATOM    4 ------------------------
     Tr[ns(  4)] =   1.00000
     eigenvalues:
       0.167  0.167  0.167
     eigenvectors (columns):
       1.000  0.000  0.000
       0.000  1.000  0.000
       0.000  0.000  1.000
     occupation matrix ns (before diag.):
       0.167  0.000  0.000
       0.000  0.167  0.000
       0.000  0.000  0.167
     ------------------------ ATOM    5 ------------------------
     Tr[ns(  5)] =   3.00000
     eigenvalues:
       0.500  0.500  0.500
     eigenvectors (columns):
       1.000  0.000  0.000
       0.000  1.000  0.000
       0.000  0.000  1.000
     occupation matrix ns (before diag.):
       0.500  0.000  0.000
       0.000  0.500  0.000
       0.000  0.000  0.500
     ------------------------ ATOM    6 ------------------------
     Tr[ns(  6)] =   3.00000
     eigenvalues:
       0.500  0.500  0.500
     eigenvectors (columns):
       1.000  0.000  0.000
       0.000  1.000  0.000
       0.000  0.000  1.000
     occupation matrix ns (before diag.):
       0.500  0.000  0.000
       0.000  0.500  0.000
       0.000  0.000  0.500
     ------------------------ ATOM    7 ------------------------
     Tr[ns(  7)] =   3.00000
     eigenvalues:
       0.500  0.500  0.500
     eigenvectors (columns):
       1.000  0.000  0.000
       0.000  1.000  0.000
       0.000  0.000  1.000
     occupation matrix ns (before diag.):
       0.500  0.000  0.000
       0.000  0.500  0.000
       0.000  0.000  0.500
     ------------------------ ATOM    8 ------------------------
     Tr[ns(  8)] =   3.00000
     eigenvalues:
       0.500  0.500  0.500
     eigenvectors (columns):
       1.000  0.000  0.000
       0.000  1.000  0.000
       0.000  0.000  1.000
     occupation matrix ns (before diag.):
       0.500  0.000  0.000
       0.000  0.500  0.000
       0.000  0.000  0.500
     ------------------------ ATOM    9 ------------------------
     Tr[ns(  9)] =   1.00000
     eigenvalues:
       0.167  0.167  0.167
     eigenvectors (columns):
       1.000  0.000  0.000
       0.000  1.000  0.000
       0.000  0.000  1.000
     occupation matrix ns (before diag.):
       0.167  0.000  0.000
       0.000  0.167  0.000
       0.000  0.000  0.167
     ------------------------ ATOM   10 ------------------------
     Tr[ns( 10)] =   1.00000
     eigenvalues:
       0.167  0.167  0.167
     eigenvectors (columns):
       1.000  0.000  0.000
       0.000  1.000  0.000
       0.000  0.000  1.000
     occupation matrix ns (before diag.):
       0.167  0.000  0.000
       0.000  0.167  0.000
       0.000  0.000  0.167
     ------------------------ ATOM   11 ------------------------
     Tr[ns( 11)] =   1.00000
     eigenvalues:
       0.167  0.167  0.167
     eigenvectors (columns):
       1.000  0.000  0.000
       0.000  1.000  0.000
       0.000  0.000  1.000
     occupation matrix ns (before diag.):
       0.167  0.000  0.000
       0.000  0.167  0.000
       0.000  0.000  0.167
     ------------------------ ATOM   12 ------------------------
     Tr[ns( 12)] =   1.00000
     eigenvalues:
       0.167  0.167  0.167
     eigenvectors (columns):
       1.000  0.000  0.000
       0.000  1.000  0.000
       0.000  0.000  1.000
     occupation matrix ns (before diag.):
       0.167  0.000  0.000
       0.000  0.167  0.000
       0.000  0.000  0.167
     ------------------------ ATOM   13 ------------------------
     Tr[ns( 13)] =   3.00000
     eigenvalues:
       0.500  0.500  0.500
     eigenvectors (columns):
       1.000  0.000  0.000
       0.000  1.000  0.000
       0.000  0.000  1.000
     occupation matrix ns (before diag.):
       0.500  0.000  0.000
       0.000  0.500  0.000
       0.000  0.000  0.500
     ------------------------ ATOM   14 ------------------------
     Tr[ns( 14)] =   3.00000
     eigenvalues:
       0.500  0.500  0.500
     eigenvectors (columns):
       1.000  0.000  0.000
       0.000  1.000  0.000
       0.000  0.000  1.000
     occupation matrix ns (before diag.):
       0.500  0.000  0.000
       0.000  0.500  0.000
       0.000  0.000  0.500
     ------------------------ ATOM   15 ------------------------
     Tr[ns( 15)] =   3.00000
     eigenvalues:
       0.500  0.500  0.500
     eigenvectors (columns):
       1.000  0.000  0.000
       0.000  1.000  0.000
       0.000  0.000  1.000
     occupation matrix ns (before diag.):
       0.500  0.000  0.000
       0.000  0.500  0.000
       0.000  0.000  0.500
     ------------------------ ATOM   16 ------------------------
     Tr[ns( 16)] =   3.00000
     eigenvalues:
       0.500  0.500  0.500
     eigenvectors (columns):
       1.000  0.000  0.000
       0.000  1.000  0.000
       0.000  0.000  1.000
     occupation matrix ns (before diag.):
       0.500  0.000  0.000
       0.000  0.500  0.000
       0.000  0.000  0.500
     ------------------------ ATOM   17 ------------------------
     Tr[ns( 17)] =   1.00000
     eigenvalues:
       0.167  0.167  0.167
     eigenvectors (columns):
       1.000  0.000  0.000
       0.000  1.000  0.000
       0.000  0.000  1.000
     occupation matrix ns (before diag.):
       0.167  0.000  0.000
       0.000  0.167  0.000
       0.000  0.000  0.167
     ------------------------ ATOM   18 ------------------------
     Tr[ns( 18)] =   1.00000
     eigenvalues:
       0.167  0.167  0.167
     eigenvectors (columns):
       1.000  0.000  0.000
       0.000  1.000  0.000
       0.000  0.000  1.000
     occupation matrix ns (before diag.):
       0.167  0.000  0.000
       0.000  0.167  0.000
       0.000  0.000  0.167
     ------------------------ ATOM   19 ------------------------
     Tr[ns( 19)] =   1.00000
     eigenvalues:
       0.167  0.167  0.167
     eigenvectors (columns):
       1.000  0.000  0.000
       0.000  1.000  0.000
       0.000  0.000  1.000
     occupation matrix ns (before diag.):
       0.167  0.000  0.000
       0.000  0.167  0.000
       0.000  0.000  0.167
     ------------------------ ATOM   20 ------------------------
     Tr[ns( 20)] =   1.00000
     eigenvalues:
       0.167  0.167  0.167
     eigenvectors (columns):
       1.000  0.000  0.000
       0.000  1.000  0.000
       0.000  0.000  1.000
     occupation matrix ns (before diag.):
       0.167  0.000  0.000
       0.000  0.167  0.000
       0.000  0.000  0.167
     ------------------------ ATOM   21 ------------------------
     Tr[ns( 21)] =   3.00000
     eigenvalues:
       0.500  0.500  0.500
     eigenvectors (columns):
       1.000  0.000  0.000
       0.000  1.000  0.000
       0.000  0.000  1.000
     occupation matrix ns (before diag.):
       0.500  0.000  0.000
       0.000  0.500  0.000
       0.000  0.000  0.500
     ------------------------ ATOM   22 ------------------------
     Tr[ns( 22)] =   3.00000
     eigenvalues:
       0.500  0.500  0.500
     eigenvectors (columns):
       1.000  0.000  0.000
       0.000  1.000  0.000
       0.000  0.000  1.000
     occupation matrix ns (before diag.):
       0.500  0.000  0.000
       0.000  0.500  0.000
       0.000  0.000  0.500
     ------------------------ ATOM   23 ------------------------
     Tr[ns( 23)] =   3.00000
     eigenvalues:
       0.500  0.500  0.500
     eigenvectors (columns):
       1.000  0.000  0.000
       0.000  1.000  0.000
       0.000  0.000  1.000
     occupation matrix ns (before diag.):
       0.500  0.000  0.000
       0.000  0.500  0.000
       0.000  0.000  0.500
     ------------------------ ATOM   24 ------------------------
     Tr[ns( 24)] =   3.00000
     eigenvalues:
       0.500  0.500  0.500
     eigenvectors (columns):
       1.000  0.000  0.000
       0.000  1.000  0.000
       0.000  0.000  1.000
     occupation matrix ns (before diag.):
       0.500  0.000  0.000
       0.000  0.500  0.000
       0.000  0.000  0.500
     ------------------------ ATOM   25 ------------------------
     Tr[ns( 25)] =   1.00000
     eigenvalues:
       0.167  0.167  0.167
     eigenvectors (columns):
       1.000  0.000  0.000
       0.000  1.000  0.000
       0.000  0.000  1.000
     occupation matrix ns (before diag.):
       0.167  0.000  0.000
       0.000  0.167  0.000
       0.000  0.000  0.167
     ------------------------ ATOM   26 ------------------------
     Tr[ns( 26)] =   1.00000
     eigenvalues:
       0.167  0.167  0.167
     eigenvectors (columns):
       1.000  0.000  0.000
       0.000  1.000  0.000
       0.000  0.000  1.000
     occupation matrix ns (before diag.):
       0.167  0.000  0.000
       0.000  0.167  0.000
       0.000  0.000  0.167
     ------------------------ ATOM   27 ------------------------
     Tr[ns( 27)] =   1.00000
     eigenvalues:
       0.167  0.167  0.167
     eigenvectors (columns):
       1.000  0.000  0.000
       0.000  1.000  0.000
       0.000  0.000  1.000
     occupation matrix ns (before diag.):
       0.167  0.000  0.000
       0.000  0.167  0.000
       0.000  0.000  0.167
     ------------------------ ATOM   28 ------------------------
     Tr[ns( 28)] =   1.00000
     eigenvalues:
       0.167  0.167  0.167
     eigenvectors (columns):
       1.000  0.000  0.000
       0.000  1.000  0.000
       0.000  0.000  1.000
     occupation matrix ns (before diag.):
       0.167  0.000  0.000
       0.000  0.167  0.000
       0.000  0.000  0.167
     ------------------------ ATOM   29 ------------------------
     Tr[ns( 29)] =   3.00000
     eigenvalues:
       0.500  0.500  0.500
     eigenvectors (columns):
       1.000  0.000  0.000
       0.000  1.000  0.000
       0.000  0.000  1.000
     occupation matrix ns (before diag.):
       0.500  0.000  0.000
       0.000  0.500  0.000
       0.000  0.000  0.500
     ------------------------ ATOM   30 ------------------------
     Tr[ns( 30)] =   3.00000
     eigenvalues:
       0.500  0.500  0.500
     eigenvectors (columns):
       1.000  0.000  0.000
       0.000  1.000  0.000
       0.000  0.000  1.000
     occupation matrix ns (before diag.):
       0.500  0.000  0.000
       0.000  0.500  0.000
       0.000  0.000  0.500
     ------------------------ ATOM   31 ------------------------
     Tr[ns( 31)] =   3.00000
     eigenvalues:
       0.500  0.500  0.500
     eigenvectors (columns):
       1.000  0.000  0.000
       0.000  1.000  0.000
       0.000  0.000  1.000
     occupation matrix ns (before diag.):
       0.500  0.000  0.000
       0.000  0.500  0.000
       0.000  0.000  0.500
     ------------------------ ATOM   32 ------------------------
     Tr[ns( 32)] =   3.00000
     eigenvalues:
       0.500  0.500  0.500
     eigenvectors (columns):
       1.000  0.000  0.000
       0.000  1.000  0.000
       0.000  0.000  1.000
     occupation matrix ns (before diag.):
       0.500  0.000  0.000
       0.000  0.500  0.000
       0.000  0.000  0.500
     ------------------------ ATOM   33 ------------------------
     Tr[ns( 33)] =   1.00000
     eigenvalues:
       0.167  0.167  0.167
     eigenvectors (columns):
       1.000  0.000  0.000
       0.000  1.000  0.000
       0.000  0.000  1.000
     occupation matrix ns (before diag.):
       0.167  0.000  0.000
       0.000  0.167  0.000
       0.000  0.000  0.167
     ------------------------ ATOM   34 ------------------------
     Tr[ns( 34)] =   1.00000
     eigenvalues:
       0.167  0.167  0.167
     eigenvectors (columns):
       1.000  0.000  0.000
       0.000  1.000  0.000
       0.000  0.000  1.000
     occupation matrix ns (before diag.):
       0.167  0.000  0.000
       0.000  0.167  0.000
       0.000  0.000  0.167
     ------------------------ ATOM   35 ------------------------
     Tr[ns( 35)] =   1.00000
     eigenvalues:
       0.167  0.167  0.167
     eigenvectors (columns):
       1.000  0.000  0.000
       0.000  1.000  0.000
       0.000  0.000  1.000
     occupation matrix ns (before diag.):
       0.167  0.000  0.000
       0.000  0.167  0.000
       0.000  0.000  0.167
     ------------------------ ATOM   36 ------------------------
     Tr[ns( 36)] =   1.00000
     eigenvalues:
       0.167  0.167  0.167
     eigenvectors (columns):
       1.000  0.000  0.000
       0.000  1.000  0.000
       0.000  0.000  1.000
     occupation matrix ns (before diag.):
       0.167  0.000  0.000
       0.000  0.167  0.000
       0.000  0.000  0.167
     ------------------------ ATOM   37 ------------------------
     Tr[ns( 37)] =   3.00000
     eigenvalues:
       0.500  0.500  0.500
     eigenvectors (columns):
       1.000  0.000  0.000
       0.000  1.000  0.000
       0.000  0.000  1.000
     occupation matrix ns (before diag.):
       0.500  0.000  0.000
       0.000  0.500  0.000
       0.000  0.000  0.500
     ------------------------ ATOM   38 ------------------------
     Tr[ns( 38)] =   3.00000
     eigenvalues:
       0.500  0.500  0.500
     eigenvectors (columns):
       1.000  0.000  0.000
       0.000  1.000  0.000
       0.000  0.000  1.000
     occupation matrix ns (before diag.):
       0.500  0.000  0.000
       0.000  0.500  0.000
       0.000  0.000  0.500
     ------------------------ ATOM   39 ------------------------
     Tr[ns( 39)] =   3.00000
     eigenvalues:
       0.500  0.500  0.500
     eigenvectors (columns):
       1.000  0.000  0.000
       0.000  1.000  0.000
       0.000  0.000  1.000
     occupation matrix ns (before diag.):
       0.500  0.000  0.000
       0.000  0.500  0.000
       0.000  0.000  0.500
     ------------------------ ATOM   40 ------------------------
     Tr[ns( 40)] =   3.00000
     eigenvalues:
       0.500  0.500  0.500
     eigenvectors (columns):
       1.000  0.000  0.000
       0.000  1.000  0.000
       0.000  0.000  1.000
     occupation matrix ns (before diag.):
       0.500  0.000  0.000
       0.000  0.500  0.000
       0.000  0.000  0.500
     ------------------------ ATOM   41 ------------------------
     Tr[ns( 41)] =   1.00000
     eigenvalues:
       0.167  0.167  0.167
     eigenvectors (columns):
       1.000  0.000  0.000
       0.000  1.000  0.000
       0.000  0.000  1.000
     occupation matrix ns (before diag.):
       0.167  0.000  0.000
       0.000  0.167  0.000
       0.000  0.000  0.167
     ------------------------ ATOM   42 ------------------------
     Tr[ns( 42)] =   1.00000
     eigenvalues:
       0.167  0.167  0.167
     eigenvectors (columns):
       1.000  0.000  0.000
       0.000  1.000  0.000
       0.000  0.000  1.000
     occupation matrix ns (before diag.):
       0.167  0.000  0.000
       0.000  0.167  0.000
       0.000  0.000  0.167
     ------------------------ ATOM   43 ------------------------
     Tr[ns( 43)] =   1.00000
     eigenvalues:
       0.167  0.167  0.167
     eigenvectors (columns):
       1.000  0.000  0.000
       0.000  1.000  0.000
       0.000  0.000  1.000
     occupation matrix ns (before diag.):
       0.167  0.000  0.000
       0.000  0.167  0.000
       0.000  0.000  0.167
     ------------------------ ATOM   44 ------------------------
     Tr[ns( 44)] =   1.00000
     eigenvalues:
       0.167  0.167  0.167
     eigenvectors (columns):
       1.000  0.000  0.000
       0.000  1.000  0.000
       0.000  0.000  1.000
     occupation matrix ns (before diag.):
       0.167  0.000  0.000
       0.000  0.167  0.000
       0.000  0.000  0.167
     ------------------------ ATOM   45 ------------------------
     Tr[ns( 45)] =   3.00000
     eigenvalues:
       0.500  0.500  0.500
     eigenvectors (columns):
       1.000  0.000  0.000
       0.000  1.000  0.000
       0.000  0.000  1.000
     occupation matrix ns (before diag.):
       0.500  0.000  0.000
       0.000  0.500  0.000
       0.000  0.000  0.500
     ------------------------ ATOM   46 ------------------------
     Tr[ns( 46)] =   3.00000
     eigenvalues:
       0.500  0.500  0.500
     eigenvectors (columns):
       1.000  0.000  0.000
       0.000  1.000  0.000
       0.000  0.000  1.000
     occupation matrix ns (before diag.):
       0.500  0.000  0.000
       0.000  0.500  0.000
       0.000  0.000  0.500
     ------------------------ ATOM   47 ------------------------
     Tr[ns( 47)] =   3.00000
     eigenvalues:
       0.500  0.500  0.500
     eigenvectors (columns):
       1.000  0.000  0.000
       0.000  1.000  0.000
       0.000  0.000  1.000
     occupation matrix ns (before diag.):
       0.500  0.000  0.000
       0.000  0.500  0.000
       0.000  0.000  0.500
     ------------------------ ATOM   48 ------------------------
     Tr[ns( 48)] =   3.00000
     eigenvalues:
       0.500  0.500  0.500
     eigenvectors (columns):
       1.000  0.000  0.000
       0.000  1.000  0.000
       0.000  0.000  1.000
     occupation matrix ns (before diag.):
       0.500  0.000  0.000
       0.000  0.500  0.000
       0.000  0.000  0.500
     ------------------------ ATOM   49 ------------------------
     Tr[ns( 49)] =   1.00000
     eigenvalues:
       0.167  0.167  0.167
     eigenvectors (columns):
       1.000  0.000  0.000
       0.000  1.000  0.000
       0.000  0.000  1.000
     occupation matrix ns (before diag.):
       0.167  0.000  0.000
       0.000  0.167  0.000
       0.000  0.000  0.167
     ------------------------ ATOM   50 ------------------------
     Tr[ns( 50)] =   1.00000
     eigenvalues:
       0.167  0.167  0.167
     eigenvectors (columns):
       1.000  0.000  0.000
       0.000  1.000  0.000
       0.000  0.000  1.000
     occupation matrix ns (before diag.):
       0.167  0.000  0.000
       0.000  0.167  0.000
       0.000  0.000  0.167
     ------------------------ ATOM   51 ------------------------
     Tr[ns( 51)] =   1.00000
     eigenvalues:
       0.167  0.167  0.167
     eigenvectors (columns):
       1.000  0.000  0.000
       0.000  1.000  0.000
       0.000  0.000  1.000
     occupation matrix ns (before diag.):
       0.167  0.000  0.000
       0.000  0.167  0.000
       0.000  0.000  0.167
     ------------------------ ATOM   52 ------------------------
     Tr[ns( 52)] =   1.00000
     eigenvalues:
       0.167  0.167  0.167
     eigenvectors (columns):
       1.000  0.000  0.000
       0.000  1.000  0.000
       0.000  0.000  1.000
     occupation matrix ns (before diag.):
       0.167  0.000  0.000
       0.000  0.167  0.000
       0.000  0.000  0.167
     ------------------------ ATOM   53 ------------------------
     Tr[ns( 53)] =   3.00000
     eigenvalues:
       0.500  0.500  0.500
     eigenvectors (columns):
       1.000  0.000  0.000
       0.000  1.000  0.000
       0.000  0.000  1.000
     occupation matrix ns (before diag.):
       0.500  0.000  0.000
       0.000  0.500  0.000
       0.000  0.000  0.500
     ------------------------ ATOM   54 ------------------------
     Tr[ns( 54)] =   3.00000
     eigenvalues:
       0.500  0.500  0.500
     eigenvectors (columns):
       1.000  0.000  0.000
       0.000  1.000  0.000
       0.000  0.000  1.000
     occupation matrix ns (before diag.):
       0.500  0.000  0.000
       0.000  0.500  0.000
       0.000  0.000  0.500
     ------------------------ ATOM   55 ------------------------
     Tr[ns( 55)] =   3.00000
     eigenvalues:
       0.500  0.500  0.500
     eigenvectors (columns):
       1.000  0.000  0.000
       0.000  1.000  0.000
       0.000  0.000  1.000
     occupation matrix ns (before diag.):
       0.500  0.000  0.000
       0.000  0.500  0.000
       0.000  0.000  0.500
     ------------------------ ATOM   56 ------------------------
     Tr[ns( 56)] =   3.00000
     eigenvalues:
       0.500  0.500  0.500
     eigenvectors (columns):
       1.000  0.000  0.000
       0.000  1.000  0.000
       0.000  0.000  1.000
     occupation matrix ns (before diag.):
       0.500  0.000  0.000
       0.000  0.500  0.000
       0.000  0.000  0.500
     ------------------------ ATOM   57 ------------------------
     Tr[ns( 57)] =   1.00000
     eigenvalues:
       0.167  0.167  0.167
     eigenvectors (columns):
       1.000  0.000  0.000
       0.000  1.000  0.000
       0.000  0.000  1.000
     occupation matrix ns (before diag.):
       0.167  0.000  0.000
       0.000  0.167  0.000
       0.000  0.000  0.167
     ------------------------ ATOM   58 ------------------------
     Tr[ns( 58)] =   1.00000
     eigenvalues:
       0.167  0.167  0.167
     eigenvectors (columns):
       1.000  0.000  0.000
       0.000  1.000  0.000
       0.000  0.000  1.000
     occupation matrix ns (before diag.):
       0.167  0.000  0.000
       0.000  0.167  0.000
       0.000  0.000  0.167
     ------------------------ ATOM   59 ------------------------
     Tr[ns( 59)] =   1.00000
     eigenvalues:
       0.167  0.167  0.167
     eigenvectors (columns):
       1.000  0.000  0.000
       0.000  1.000  0.000
       0.000  0.000  1.000
     occupation matrix ns (before diag.):
       0.167  0.000  0.000
       0.000  0.167  0.000
       0.000  0.000  0.167
     ------------------------ ATOM   60 ------------------------
     Tr[ns( 60)] =   1.00000
     eigenvalues:
       0.167  0.167  0.167
     eigenvectors (columns):
       1.000  0.000  0.000
       0.000  1.000  0.000
       0.000  0.000  1.000
     occupation matrix ns (before diag.):
       0.167  0.000  0.000
       0.000  0.167  0.000
       0.000  0.000  0.167
     ------------------------ ATOM   61 ------------------------
     Tr[ns( 61)] =   3.00000
     eigenvalues:
       0.500  0.500  0.500
     eigenvectors (columns):
       1.000  0.000  0.000
       0.000  1.000  0.000
       0.000  0.000  1.000
     occupation matrix ns (before diag.):
       0.500  0.000  0.000
       0.000  0.500  0.000
       0.000  0.000  0.500
     ------------------------ ATOM   62 ------------------------
     Tr[ns( 62)] =   3.00000
     eigenvalues:
       0.500  0.500  0.500
     eigenvectors (columns):
       1.000  0.000  0.000
       0.000  1.000  0.000
       0.000  0.000  1.000
     occupation matrix ns (before diag.):
       0.500  0.000  0.000
       0.000  0.500  0.000
       0.000  0.000  0.500
     ------------------------ ATOM   63 ------------------------
     Tr[ns( 63)] =   3.00000
     eigenvalues:
       0.500  0.500  0.500
     eigenvectors (columns):
       1.000  0.000  0.000
       0.000  1.000  0.000
       0.000  0.000  1.000
     occupation matrix ns (before diag.):
       0.500  0.000  0.000
       0.000  0.500  0.000
       0.000  0.000  0.500
     ------------------------ ATOM   64 ------------------------
     Tr[ns( 64)] =   3.00000
     eigenvalues:
       0.500  0.500  0.500
     eigenvectors (columns):
       1.000  0.000  0.000
       0.000  1.000  0.000
       0.000  0.000  1.000
     occupation matrix ns (before diag.):
       0.500  0.000  0.000
       0.000  0.500  0.000
       0.000  0.000  0.500
     ------------------------ ATOM   65 ------------------------
     Tr[ns( 65)] =   1.00000
     eigenvalues:
       0.167  0.167  0.167
     eigenvectors (columns):
       1.000  0.000  0.000
       0.000  1.000  0.000
       0.000  0.000  1.000
     occupation matrix ns (before diag.):
       0.167  0.000  0.000
       0.000  0.167  0.000
       0.000  0.000  0.167
     ------------------------ ATOM   66 ------------------------
     Tr[ns( 66)] =   1.00000
     eigenvalues:
       0.167  0.167  0.167
     eigenvectors (columns):
       1.000  0.000  0.000
       0.000  1.000  0.000
       0.000  0.000  1.000
     occupation matrix ns (before diag.):
       0.167  0.000  0.000
       0.000  0.167  0.000
       0.000  0.000  0.167
     ------------------------ ATOM   67 ------------------------
     Tr[ns( 67)] =   1.00000
     eigenvalues:
       0.167  0.167  0.167
     eigenvectors (columns):
       1.000  0.000  0.000
       0.000  1.000  0.000
       0.000  0.000  1.000
     occupation matrix ns (before diag.):
       0.167  0.000  0.000
       0.000  0.167  0.000
       0.000  0.000  0.167
     ------------------------ ATOM   68 ------------------------
     Tr[ns( 68)] =   1.00000
     eigenvalues:
       0.167  0.167  0.167
     eigenvectors (columns):
       1.000  0.000  0.000
       0.000  1.000  0.000
       0.000  0.000  1.000
     occupation matrix ns (before diag.):
       0.167  0.000  0.000
       0.000  0.167  0.000
       0.000  0.000  0.167
     ------------------------ ATOM   69 ------------------------
     Tr[ns( 69)] =   3.00000
     eigenvalues:
       0.500  0.500  0.500
     eigenvectors (columns):
       1.000  0.000  0.000
       0.000  1.000  0.000
       0.000  0.000  1.000
     occupation matrix ns (before diag.):
       0.500  0.000  0.000
       0.000  0.500  0.000
       0.000  0.000  0.500
     ------------------------ ATOM   70 ------------------------
     Tr[ns( 70)] =   3.00000
     eigenvalues:
       0.500  0.500  0.500
     eigenvectors (columns):
       1.000  0.000  0.000
       0.000  1.000  0.000
       0.000  0.000  1.000
     occupation matrix ns (before diag.):
       0.500  0.000  0.000
       0.000  0.500  0.000
       0.000  0.000  0.500
     ------------------------ ATOM   71 ------------------------
     Tr[ns( 71)] =   3.00000
     eigenvalues:
       0.500  0.500  0.500
     eigenvectors (columns):
       1.000  0.000  0.000
       0.000  1.000  0.000
       0.000  0.000  1.000
     occupation matrix ns (before diag.):
       0.500  0.000  0.000
       0.000  0.500  0.000
       0.000  0.000  0.500
     ------------------------ ATOM   72 ------------------------
     Tr[ns( 72)] =   3.00000
     eigenvalues:
       0.500  0.500  0.500
     eigenvectors (columns):
       1.000  0.000  0.000
       0.000  1.000  0.000
       0.000  0.000  1.000
     occupation matrix ns (before diag.):
       0.500  0.000  0.000
       0.000  0.500  0.000
       0.000  0.000  0.500
     ------------------------ ATOM   73 ------------------------
     Tr[ns( 73)] =   1.00000
     eigenvalues:
       0.167  0.167  0.167
     eigenvectors (columns):
       1.000  0.000  0.000
       0.000  1.000  0.000
       0.000  0.000  1.000
     occupation matrix ns (before diag.):
       0.167  0.000  0.000
       0.000  0.167  0.000
       0.000  0.000  0.167
     ------------------------ ATOM   74 ------------------------
     Tr[ns( 74)] =   1.00000
     eigenvalues:
       0.167  0.167  0.167
     eigenvectors (columns):
       1.000  0.000  0.000
       0.000  1.000  0.000
       0.000  0.000  1.000
     occupation matrix ns (before diag.):
       0.167  0.000  0.000
       0.000  0.167  0.000
       0.000  0.000  0.167
     ------------------------ ATOM   75 ------------------------
     Tr[ns( 75)] =   1.00000
     eigenvalues:
       0.167  0.167  0.167
     eigenvectors (columns):
       1.000  0.000  0.000
       0.000  1.000  0.000
       0.000  0.000  1.000
     occupation matrix ns (before diag.):
       0.167  0.000  0.000
       0.000  0.167  0.000
       0.000  0.000  0.167
     ------------------------ ATOM   76 ------------------------
     Tr[ns( 76)] =   1.00000
     eigenvalues:
       0.167  0.167  0.167
     eigenvectors (columns):
       1.000  0.000  0.000
       0.000  1.000  0.000
       0.000  0.000  1.000
     occupation matrix ns (before diag.):
       0.167  0.000  0.000
       0.000  0.167  0.000
       0.000  0.000  0.167
     ------------------------ ATOM   77 ------------------------
     Tr[ns( 77)] =   3.00000
     eigenvalues:
       0.500  0.500  0.500
     eigenvectors (columns):
       1.000  0.000  0.000
       0.000  1.000  0.000
       0.000  0.000  1.000
     occupation matrix ns (before diag.):
       0.500  0.000  0.000
       0.000  0.500  0.000
       0.000  0.000  0.500
     ------------------------ ATOM   78 ------------------------
     Tr[ns( 78)] =   3.00000
     eigenvalues:
       0.500  0.500  0.500
     eigenvectors (columns):
       1.000  0.000  0.000
       0.000  1.000  0.000
       0.000  0.000  1.000
     occupation matrix ns (before diag.):
       0.500  0.000  0.000
       0.000  0.500  0.000
       0.000  0.000  0.500
     ------------------------ ATOM   79 ------------------------
     Tr[ns( 79)] =   3.00000
     eigenvalues:
       0.500  0.500  0.500
     eigenvectors (columns):
       1.000  0.000  0.000
       0.000  1.000  0.000
       0.000  0.000  1.000
     occupation matrix ns (before diag.):
       0.500  0.000  0.000
       0.000  0.500  0.000
       0.000  0.000  0.500
     ------------------------ ATOM   80 ------------------------
     Tr[ns( 80)] =   3.00000
     eigenvalues:
       0.500  0.500  0.500
     eigenvectors (columns):
       1.000  0.000  0.000
       0.000  1.000  0.000
       0.000  0.000  1.000
     occupation matrix ns (before diag.):
       0.500  0.000  0.000
       0.000  0.500  0.000
       0.000  0.000  0.500
     ------------------------ ATOM   81 ------------------------
     Tr[ns( 81)] =   1.00000
     eigenvalues:
       0.167  0.167  0.167
     eigenvectors (columns):
       1.000  0.000  0.000
       0.000  1.000  0.000
       0.000  0.000  1.000
     occupation matrix ns (before diag.):
       0.167  0.000  0.000
       0.000  0.167  0.000
       0.000  0.000  0.167
     ------------------------ ATOM   82 ------------------------
     Tr[ns( 82)] =   1.00000
     eigenvalues:
       0.167  0.167  0.167
     eigenvectors (columns):
       1.000  0.000  0.000
       0.000  1.000  0.000
       0.000  0.000  1.000
     occupation matrix ns (before diag.):
       0.167  0.000  0.000
       0.000  0.167  0.000
       0.000  0.000  0.167
     ------------------------ ATOM   83 ------------------------
     Tr[ns( 83)] =   1.00000
     eigenvalues:
       0.167  0.167  0.167
     eigenvectors (columns):
       1.000  0.000  0.000
       0.000  1.000  0.000
       0.000  0.000  1.000
     occupation matrix ns (before diag.):
       0.167  0.000  0.000
       0.000  0.167  0.000
       0.000  0.000  0.167
     ------------------------ ATOM   84 ------------------------
     Tr[ns( 84)] =   1.00000
     eigenvalues:
       0.167  0.167  0.167
     eigenvectors (columns):
       1.000  0.000  0.000
       0.000  1.000  0.000
       0.000  0.000  1.000
     occupation matrix ns (before diag.):
       0.167  0.000  0.000
       0.000  0.167  0.000
       0.000  0.000  0.167
     ------------------------ ATOM   85 ------------------------
     Tr[ns( 85)] =   3.00000
     eigenvalues:
       0.500  0.500  0.500
     eigenvectors (columns):
       1.000  0.000  0.000
       0.000  1.000  0.000
       0.000  0.000  1.000
     occupation matrix ns (before diag.):
       0.500  0.000  0.000
       0.000  0.500  0.000
       0.000  0.000  0.500
     ------------------------ ATOM   86 ------------------------
     Tr[ns( 86)] =   3.00000
     eigenvalues:
       0.500  0.500  0.500
     eigenvectors (columns):
       1.000  0.000  0.000
       0.000  1.000  0.000
       0.000  0.000  1.000
     occupation matrix ns (before diag.):
       0.500  0.000  0.000
       0.000  0.500  0.000
       0.000  0.000  0.500
     ------------------------ ATOM   87 ------------------------
     Tr[ns( 87)] =   3.00000
     eigenvalues:
       0.500  0.500  0.500
     eigenvectors (columns):
       1.000  0.000  0.000
       0.000  1.000  0.000
       0.000  0.000  1.000
     occupation matrix ns (before diag.):
       0.500  0.000  0.000
       0.000  0.500  0.000
       0.000  0.000  0.500
     ------------------------ ATOM   88 ------------------------
     Tr[ns( 88)] =   3.00000
     eigenvalues:
       0.500  0.500  0.500
     eigenvectors (columns):
       1.000  0.000  0.000
       0.000  1.000  0.000
       0.000  0.000  1.000
     occupation matrix ns (before diag.):
       0.500  0.000  0.000
       0.000  0.500  0.000
       0.000  0.000  0.500
     ------------------------ ATOM   89 ------------------------
     Tr[ns( 89)] =   1.00000
     eigenvalues:
       0.167  0.167  0.167
     eigenvectors (columns):
       1.000  0.000  0.000
       0.000  1.000  0.000
       0.000  0.000  1.000
     occupation matrix ns (before diag.):
       0.167  0.000  0.000
       0.000  0.167  0.000
       0.000  0.000  0.167
     ------------------------ ATOM   90 ------------------------
     Tr[ns( 90)] =   1.00000
     eigenvalues:
       0.167  0.167  0.167
     eigenvectors (columns):
       1.000  0.000  0.000
       0.000  1.000  0.000
       0.000  0.000  1.000
     occupation matrix ns (before diag.):
       0.167  0.000  0.000
       0.000  0.167  0.000
       0.000  0.000  0.167
     ------------------------ ATOM   91 ------------------------
     Tr[ns( 91)] =   1.00000
     eigenvalues:
       0.167  0.167  0.167
     eigenvectors (columns):
       1.000  0.000  0.000
       0.000  1.000  0.000
       0.000  0.000  1.000
     occupation matrix ns (before diag.):
       0.167  0.000  0.000
       0.000  0.167  0.000
       0.000  0.000  0.167
     ------------------------ ATOM   92 ------------------------
     Tr[ns( 92)] =   1.00000
     eigenvalues:
       0.167  0.167  0.167
     eigenvectors (columns):
       1.000  0.000  0.000
       0.000  1.000  0.000
       0.000  0.000  1.000
     occupation matrix ns (before diag.):
       0.167  0.000  0.000
       0.000  0.167  0.000
       0.000  0.000  0.167
     ------------------------ ATOM   93 ------------------------
     Tr[ns( 93)] =   3.00000
     eigenvalues:
       0.500  0.500  0.500
     eigenvectors (columns):
       1.000  0.000  0.000
       0.000  1.000  0.000
       0.000  0.000  1.000
     occupation matrix ns (before diag.):
       0.500  0.000  0.000
       0.000  0.500  0.000
       0.000  0.000  0.500
     ------------------------ ATOM   94 ------------------------
     Tr[ns( 94)] =   3.00000
     eigenvalues:
       0.500  0.500  0.500
     eigenvectors (columns):
       1.000  0.000  0.000
       0.000  1.000  0.000
       0.000  0.000  1.000
     occupation matrix ns (before diag.):
       0.500  0.000  0.000
       0.000  0.500  0.000
       0.000  0.000  0.500
     ------------------------ ATOM   95 ------------------------
     Tr[ns( 95)] =   3.00000
     eigenvalues:
       0.500  0.500  0.500
     eigenvectors (columns):
       1.000  0.000  0.000
       0.000  1.000  0.000
       0.000  0.000  1.000
     occupation matrix ns (before diag.):
       0.500  0.000  0.000
       0.000  0.500  0.000
       0.000  0.000  0.500
     ------------------------ ATOM   96 ------------------------
     Tr[ns( 96)] =   3.00000
     eigenvalues:
       0.500  0.500  0.500
     eigenvectors (columns):
       1.000  0.000  0.000
       0.000  1.000  0.000
       0.000  0.000  1.000
     occupation matrix ns (before diag.):
       0.500  0.000  0.000
       0.000  0.500  0.000
       0.000  0.000  0.500
     ------------------------ ATOM   97 ------------------------
     Tr[ns( 97)] =   1.00000
     eigenvalues:
       0.167  0.167  0.167
     eigenvectors (columns):
       1.000  0.000  0.000
       0.000  1.000  0.000
       0.000  0.000  1.000
     occupation matrix ns (before diag.):
       0.167  0.000  0.000
       0.000  0.167  0.000
       0.000  0.000  0.167
     ------------------------ ATOM   98 ------------------------
     Tr[ns( 98)] =   1.00000
     eigenvalues:
       0.167  0.167  0.167
     eigenvectors (columns):
       1.000  0.000  0.000
       0.000  1.000  0.000
       0.000  0.000  1.000
     occupation matrix ns (before diag.):
       0.167  0.000  0.000
       0.000  0.167  0.000
       0.000  0.000  0.167
     ------------------------ ATOM   99 ------------------------
     Tr[ns( 99)] =   1.00000
     eigenvalues:
       0.167  0.167  0.167
     eigenvectors (columns):
       1.000  0.000  0.000
       0.000  1.000  0.000
       0.000  0.000  1.000
     occupation matrix ns (before diag.):
       0.167  0.000  0.000
       0.000  0.167  0.000
       0.000  0.000  0.167
     ------------------------ ATOM  100 ------------------------
     Tr[ns(100)] =   1.00000
     eigenvalues:
       0.167  0.167  0.167
     eigenvectors (columns):
       1.000  0.000  0.000
       0.000  1.000  0.000
       0.000  0.000  1.000
     occupation matrix ns (before diag.):
       0.167  0.000  0.000
       0.000  0.167  0.000
       0.000  0.000  0.167
     ------------------------ ATOM  101 ------------------------
     Tr[ns(101)] =   3.00000
     eigenvalues:
       0.500  0.500  0.500
     eigenvectors (columns):
       1.000  0.000  0.000
       0.000  1.000  0.000
       0.000  0.000  1.000
     occupation matrix ns (before diag.):
       0.500  0.000  0.000
       0.000  0.500  0.000
       0.000  0.000  0.500
     ------------------------ ATOM  102 ------------------------
     Tr[ns(102)] =   3.00000
     eigenvalues:
       0.500  0.500  0.500
     eigenvectors (columns):
       1.000  0.000  0.000
       0.000  1.000  0.000
       0.000  0.000  1.000
     occupation matrix ns (before diag.):
       0.500  0.000  0.000
       0.000  0.500  0.000
       0.000  0.000  0.500
     ------------------------ ATOM  103 ------------------------
     Tr[ns(103)] =   3.00000
     eigenvalues:
       0.500  0.500  0.500
     eigenvectors (columns):
       1.000  0.000  0.000
       0.000  1.000  0.000
       0.000  0.000  1.000
     occupation matrix ns (before diag.):
       0.500  0.000  0.000
       0.000  0.500  0.000
       0.000  0.000  0.500
     ------------------------ ATOM  104 ------------------------
     Tr[ns(104)] =   3.00000
     eigenvalues:
       0.500  0.500  0.500
     eigenvectors (columns):
       1.000  0.000  0.000
       0.000  1.000  0.000
       0.000  0.000  1.000
     occupation matrix ns (before diag.):
       0.500  0.000  0.000
       0.000  0.500  0.000
       0.000  0.000  0.500
     ------------------------ ATOM  105 ------------------------
     Tr[ns(105)] =   1.00000
     eigenvalues:
       0.167  0.167  0.167
     eigenvectors (columns):
       1.000  0.000  0.000
       0.000  1.000  0.000
       0.000  0.000  1.000
     occupation matrix ns (before diag.):
       0.167  0.000  0.000
       0.000  0.167  0.000
       0.000  0.000  0.167
     ------------------------ ATOM  106 ------------------------
     Tr[ns(106)] =   1.00000
     eigenvalues:
       0.167  0.167  0.167
     eigenvectors (columns):
       1.000  0.000  0.000
       0.000  1.000  0.000
       0.000  0.000  1.000
     occupation matrix ns (before diag.):
       0.167  0.000  0.000
       0.000  0.167  0.000
       0.000  0.000  0.167
     ------------------------ ATOM  107 ------------------------
     Tr[ns(107)] =   1.00000
     eigenvalues:
       0.167  0.167  0.167
     eigenvectors (columns):
       1.000  0.000  0.000
       0.000  1.000  0.000
       0.000  0.000  1.000
     occupation matrix ns (before diag.):
       0.167  0.000  0.000
       0.000  0.167  0.000
       0.000  0.000  0.167
     ------------------------ ATOM  108 ------------------------
     Tr[ns(108)] =   1.00000
     eigenvalues:
       0.167  0.167  0.167
     eigenvectors (columns):
       1.000  0.000  0.000
       0.000  1.000  0.000
       0.000  0.000  1.000
     occupation matrix ns (before diag.):
       0.167  0.000  0.000
       0.000  0.167  0.000
       0.000  0.000  0.167
     ------------------------ ATOM  109 ------------------------
     Tr[ns(109)] =   3.00000
     eigenvalues:
       0.500  0.500  0.500
     eigenvectors (columns):
       1.000  0.000  0.000
       0.000  1.000  0.000
       0.000  0.000  1.000
     occupation matrix ns (before diag.):
       0.500  0.000  0.000
       0.000  0.500  0.000
       0.000  0.000  0.500
     ------------------------ ATOM  110 ------------------------
     Tr[ns(110)] =   3.00000
     eigenvalues:
       0.500  0.500  0.500
     eigenvectors (columns):
       1.000  0.000  0.000
       0.000  1.000  0.000
       0.000  0.000  1.000
     occupation matrix ns (before diag.):
       0.500  0.000  0.000
       0.000  0.500  0.000
       0.000  0.000  0.500
     ------------------------ ATOM  111 ------------------------
     Tr[ns(111)] =   3.00000
     eigenvalues:
       0.500  0.500  0.500
     eigenvectors (columns):
       1.000  0.000  0.000
       0.000  1.000  0.000
       0.000  0.000  1.000
     occupation matrix ns (before diag.):
       0.500  0.000  0.000
       0.000  0.500  0.000
       0.000  0.000  0.500
     ------------------------ ATOM  112 ------------------------
     Tr[ns(112)] =   3.00000
     eigenvalues:
       0.500  0.500  0.500
     eigenvectors (columns):
       1.000  0.000  0.000
       0.000  1.000  0.000
       0.000  0.000  1.000
     occupation matrix ns (before diag.):
       0.500  0.000  0.000
       0.000  0.500  0.000
       0.000  0.000  0.500
     ------------------------ ATOM  113 ------------------------
     Tr[ns(113)] =   1.00000
     eigenvalues:
       0.167  0.167  0.167
     eigenvectors (columns):
       1.000  0.000  0.000
       0.000  1.000  0.000
       0.000  0.000  1.000
     occupation matrix ns (before diag.):
       0.167  0.000  0.000
       0.000  0.167  0.000
       0.000  0.000  0.167
     ------------------------ ATOM  114 ------------------------
     Tr[ns(114)] =   1.00000
     eigenvalues:
       0.167  0.167  0.167
     eigenvectors (columns):
       1.000  0.000  0.000
       0.000  1.000  0.000
       0.000  0.000  1.000
     occupation matrix ns (before diag.):
       0.167  0.000  0.000
       0.000  0.167  0.000
       0.000  0.000  0.167
     ------------------------ ATOM  115 ------------------------
     Tr[ns(115)] =   1.00000
     eigenvalues:
       0.167  0.167  0.167
     eigenvectors (columns):
       1.000  0.000  0.000
       0.000  1.000  0.000
       0.000  0.000  1.000
     occupation matrix ns (before diag.):
       0.167  0.000  0.000
       0.000  0.167  0.000
       0.000  0.000  0.167
     ------------------------ ATOM  116 ------------------------
     Tr[ns(116)] =   1.00000
     eigenvalues:
       0.167  0.167  0.167
     eigenvectors (columns):
       1.000  0.000  0.000
       0.000  1.000  0.000
       0.000  0.000  1.000
     occupation matrix ns (before diag.):
       0.167  0.000  0.000
       0.000  0.167  0.000
       0.000  0.000  0.167
     ------------------------ ATOM  117 ------------------------
     Tr[ns(117)] =   3.00000
     eigenvalues:
       0.500  0.500  0.500
     eigenvectors (columns):
       1.000  0.000  0.000
       0.000  1.000  0.000
       0.000  0.000  1.000
     occupation matrix ns (before diag.):
       0.500  0.000  0.000
       0.000  0.500  0.000
       0.000  0.000  0.500
     ------------------------ ATOM  118 ------------------------
     Tr[ns(118)] =   3.00000
     eigenvalues:
       0.500  0.500  0.500
     eigenvectors (columns):
       1.000  0.000  0.000
       0.000  1.000  0.000
       0.000  0.000  1.000
     occupation matrix ns (before diag.):
       0.500  0.000  0.000
       0.000  0.500  0.000
       0.000  0.000  0.500
     ------------------------ ATOM  119 ------------------------
     Tr[ns(119)] =   3.00000
     eigenvalues:
       0.500  0.500  0.500
     eigenvectors (columns):
       1.000  0.000  0.000
       0.000  1.000  0.000
       0.000  0.000  1.000
     occupation matrix ns (before diag.):
       0.500  0.000  0.000
       0.000  0.500  0.000
       0.000  0.000  0.500
     ------------------------ ATOM  120 ------------------------
     Tr[ns(120)] =   3.00000
     eigenvalues:
       0.500  0.500  0.500
     eigenvectors (columns):
       1.000  0.000  0.000
       0.000  1.000  0.000
       0.000  0.000  1.000
     occupation matrix ns (before diag.):
       0.500  0.000  0.000
       0.000  0.500  0.000
       0.000  0.000  0.500
     ------------------------ ATOM  121 ------------------------
     Tr[ns(121)] =   1.00000
     eigenvalues:
       0.167  0.167  0.167
     eigenvectors (columns):
       1.000  0.000  0.000
       0.000  1.000  0.000
       0.000  0.000  1.000
     occupation matrix ns (before diag.):
       0.167  0.000  0.000
       0.000  0.167  0.000
       0.000  0.000  0.167
     ------------------------ ATOM  122 ------------------------
     Tr[ns(122)] =   1.00000
     eigenvalues:
       0.167  0.167  0.167
     eigenvectors (columns):
       1.000  0.000  0.000
       0.000  1.000  0.000
       0.000  0.000  1.000
     occupation matrix ns (before diag.):
       0.167  0.000  0.000
       0.000  0.167  0.000
       0.000  0.000  0.167
     ------------------------ ATOM  123 ------------------------
     Tr[ns(123)] =   1.00000
     eigenvalues:
       0.167  0.167  0.167
     eigenvectors (columns):
       1.000  0.000  0.000
       0.000  1.000  0.000
       0.000  0.000  1.000
     occupation matrix ns (before diag.):
       0.167  0.000  0.000
       0.000  0.167  0.000
       0.000  0.000  0.167
     ------------------------ ATOM  124 ------------------------
     Tr[ns(124)] =   1.00000
     eigenvalues:
       0.167  0.167  0.167
     eigenvectors (columns):
       1.000  0.000  0.000
       0.000  1.000  0.000
       0.000  0.000  1.000
     occupation matrix ns (before diag.):
       0.167  0.000  0.000
       0.000  0.167  0.000
       0.000  0.000  0.167
     ------------------------ ATOM  125 ------------------------
     Tr[ns(125)] =   3.00000
     eigenvalues:
       0.500  0.500  0.500
     eigenvectors (columns):
       1.000  0.000  0.000
       0.000  1.000  0.000
       0.000  0.000  1.000
     occupation matrix ns (before diag.):
       0.500  0.000  0.000
       0.000  0.500  0.000
       0.000  0.000  0.500
     ------------------------ ATOM  126 ------------------------
     Tr[ns(126)] =   3.00000
     eigenvalues:
       0.500  0.500  0.500
     eigenvectors (columns):
       1.000  0.000  0.000
       0.000  1.000  0.000
       0.000  0.000  1.000
     occupation matrix ns (before diag.):
       0.500  0.000  0.000
       0.000  0.500  0.000
       0.000  0.000  0.500
     ------------------------ ATOM  127 ------------------------
     Tr[ns(127)] =   3.00000
     eigenvalues:
       0.500  0.500  0.500
     eigenvectors (columns):
       1.000  0.000  0.000
       0.000  1.000  0.000
       0.000  0.000  1.000
     occupation matrix ns (before diag.):
       0.500  0.000  0.000
       0.000  0.500  0.000
       0.000  0.000  0.500
     ------------------------ ATOM  128 ------------------------
     Tr[ns(128)] =   3.00000
     eigenvalues:
       0.500  0.500  0.500
     eigenvectors (columns):
       1.000  0.000  0.000
       0.000  1.000  0.000
       0.000  0.000  1.000
     occupation matrix ns (before diag.):
       0.500  0.000  0.000
       0.000  0.500  0.000
       0.000  0.000  0.500
     ------------------------ ATOM  129 ------------------------
     Tr[ns(129)] =   1.00000
     eigenvalues:
       0.167  0.167  0.167
     eigenvectors (columns):
       1.000  0.000  0.000
       0.000  1.000  0.000
       0.000  0.000  1.000
     occupation matrix ns (before diag.):
       0.167  0.000  0.000
       0.000  0.167  0.000
       0.000  0.000  0.167
     ------------------------ ATOM  130 ------------------------
     Tr[ns(130)] =   1.00000
     eigenvalues:
       0.167  0.167  0.167
     eigenvectors (columns):
       1.000  0.000  0.000
       0.000  1.000  0.000
       0.000  0.000  1.000
     occupation matrix ns (before diag.):
       0.167  0.000  0.000
       0.000  0.167  0.000
       0.000  0.000  0.167
     ------------------------ ATOM  131 ------------------------
     Tr[ns(131)] =   1.00000
     eigenvalues:
       0.167  0.167  0.167
     eigenvectors (columns):
       1.000  0.000  0.000
       0.000  1.000  0.000
       0.000  0.000  1.000
     occupation matrix ns (before diag.):
       0.167  0.000  0.000
       0.000  0.167  0.000
       0.000  0.000  0.167
     ------------------------ ATOM  132 ------------------------
     Tr[ns(132)] =   1.00000
     eigenvalues:
       0.167  0.167  0.167
     eigenvectors (columns):
       1.000  0.000  0.000
       0.000  1.000  0.000
       0.000  0.000  1.000
     occupation matrix ns (before diag.):
       0.167  0.000  0.000
       0.000  0.167  0.000
       0.000  0.000  0.167
     ------------------------ ATOM  133 ------------------------
     Tr[ns(133)] =   3.00000
     eigenvalues:
       0.500  0.500  0.500
     eigenvectors (columns):
       1.000  0.000  0.000
       0.000  1.000  0.000
       0.000  0.000  1.000
     occupation matrix ns (before diag.):
       0.500  0.000  0.000
       0.000  0.500  0.000
       0.000  0.000  0.500
     ------------------------ ATOM  134 ------------------------
     Tr[ns(134)] =   3.00000
     eigenvalues:
       0.500  0.500  0.500
     eigenvectors (columns):
       1.000  0.000  0.000
       0.000  1.000  0.000
       0.000  0.000  1.000
     occupation matrix ns (before diag.):
       0.500  0.000  0.000
       0.000  0.500  0.000
       0.000  0.000  0.500
     ------------------------ ATOM  135 ------------------------
     Tr[ns(135)] =   3.00000
     eigenvalues:
       0.500  0.500  0.500
     eigenvectors (columns):
       1.000  0.000  0.000
       0.000  1.000  0.000
       0.000  0.000  1.000
     occupation matrix ns (before diag.):
       0.500  0.000  0.000
       0.000  0.500  0.000
       0.000  0.000  0.500
     ------------------------ ATOM  136 ------------------------
     Tr[ns(136)] =   3.00000
     eigenvalues:
       0.500  0.500  0.500
     eigenvectors (columns):
       1.000  0.000  0.000
       0.000  1.000  0.000
       0.000  0.000  1.000
     occupation matrix ns (before diag.):
       0.500  0.000  0.000
       0.000  0.500  0.000
       0.000  0.000  0.500
     ------------------------ ATOM  137 ------------------------
     Tr[ns(137)] =   1.00000
     eigenvalues:
       0.167  0.167  0.167
     eigenvectors (columns):
       1.000  0.000  0.000
       0.000  1.000  0.000
       0.000  0.000  1.000
     occupation matrix ns (before diag.):
       0.167  0.000  0.000
       0.000  0.167  0.000
       0.000  0.000  0.167
     ------------------------ ATOM  138 ------------------------
     Tr[ns(138)] =   1.00000
     eigenvalues:
       0.167  0.167  0.167
     eigenvectors (columns):
       1.000  0.000  0.000
       0.000  1.000  0.000
       0.000  0.000  1.000
     occupation matrix ns (before diag.):
       0.167  0.000  0.000
       0.000  0.167  0.000
       0.000  0.000  0.167
     ------------------------ ATOM  139 ------------------------
     Tr[ns(139)] =   1.00000
     eigenvalues:
       0.167  0.167  0.167
     eigenvectors (columns):
       1.000  0.000  0.000
       0.000  1.000  0.000
       0.000  0.000  1.000
     occupation matrix ns (before diag.):
       0.167  0.000  0.000
       0.000  0.167  0.000
       0.000  0.000  0.167
     ------------------------ ATOM  140 ------------------------
     Tr[ns(140)] =   1.00000
     eigenvalues:
       0.167  0.167  0.167
     eigenvectors (columns):
       1.000  0.000  0.000
       0.000  1.000  0.000
       0.000  0.000  1.000
     occupation matrix ns (before diag.):
       0.167  0.000  0.000
       0.000  0.167  0.000
       0.000  0.000  0.167
     ------------------------ ATOM  141 ------------------------
     Tr[ns(141)] =   3.00000
     eigenvalues:
       0.500  0.500  0.500
     eigenvectors (columns):
       1.000  0.000  0.000
       0.000  1.000  0.000
       0.000  0.000  1.000
     occupation matrix ns (before diag.):
       0.500  0.000  0.000
       0.000  0.500  0.000
       0.000  0.000  0.500
     ------------------------ ATOM  142 ------------------------
     Tr[ns(142)] =   3.00000
     eigenvalues:
       0.500  0.500  0.500
     eigenvectors (columns):
       1.000  0.000  0.000
       0.000  1.000  0.000
       0.000  0.000  1.000
     occupation matrix ns (before diag.):
       0.500  0.000  0.000
       0.000  0.500  0.000
       0.000  0.000  0.500
     ------------------------ ATOM  143 ------------------------
     Tr[ns(143)] =   3.00000
     eigenvalues:
       0.500  0.500  0.500
     eigenvectors (columns):
       1.000  0.000  0.000
       0.000  1.000  0.000
       0.000  0.000  1.000
     occupation matrix ns (before diag.):
       0.500  0.000  0.000
       0.000  0.500  0.000
       0.000  0.000  0.500
     ------------------------ ATOM  144 ------------------------
     Tr[ns(144)] =   3.00000
     eigenvalues:
       0.500  0.500  0.500
     eigenvectors (columns):
       1.000  0.000  0.000
       0.000  1.000  0.000
       0.000  0.000  1.000
     occupation matrix ns (before diag.):
       0.500  0.000  0.000
       0.000  0.500  0.000
       0.000  0.000  0.500
     ------------------------ ATOM  145 ------------------------
     Tr[ns(145)] =   1.00000
     eigenvalues:
       0.167  0.167  0.167
     eigenvectors (columns):
       1.000  0.000  0.000
       0.000  1.000  0.000
       0.000  0.000  1.000
     occupation matrix ns (before diag.):
       0.167  0.000  0.000
       0.000  0.167  0.000
       0.000  0.000  0.167
     ------------------------ ATOM  146 ------------------------
     Tr[ns(146)] =   1.00000
     eigenvalues:
       0.167  0.167  0.167
     eigenvectors (columns):
       1.000  0.000  0.000
       0.000  1.000  0.000
       0.000  0.000  1.000
     occupation matrix ns (before diag.):
       0.167  0.000  0.000
       0.000  0.167  0.000
       0.000  0.000  0.167
     ------------------------ ATOM  147 ------------------------
     Tr[ns(147)] =   1.00000
     eigenvalues:
       0.167  0.167  0.167
     eigenvectors (columns):
       1.000  0.000  0.000
       0.000  1.000  0.000
       0.000  0.000  1.000
     occupation matrix ns (before diag.):
       0.167  0.000  0.000
       0.000  0.167  0.000
       0.000  0.000  0.167
     ------------------------ ATOM  148 ------------------------
     Tr[ns(148)] =   1.00000
     eigenvalues:
       0.167  0.167  0.167
     eigenvectors (columns):
       1.000  0.000  0.000
       0.000  1.000  0.000
       0.000  0.000  1.000
     occupation matrix ns (before diag.):
       0.167  0.000  0.000
       0.000  0.167  0.000
       0.000  0.000  0.167
     ------------------------ ATOM  149 ------------------------
     Tr[ns(149)] =   3.00000
     eigenvalues:
       0.500  0.500  0.500
     eigenvectors (columns):
       1.000  0.000  0.000
       0.000  1.000  0.000
       0.000  0.000  1.000
     occupation matrix ns (before diag.):
       0.500  0.000  0.000
       0.000  0.500  0.000
       0.000  0.000  0.500
     ------------------------ ATOM  150 ------------------------
     Tr[ns(150)] =   3.00000
     eigenvalues:
       0.500  0.500  0.500
     eigenvectors (columns):
       1.000  0.000  0.000
       0.000  1.000  0.000
       0.000  0.000  1.000
     occupation matrix ns (before diag.):
       0.500  0.000  0.000
       0.000  0.500  0.000
       0.000  0.000  0.500
     ------------------------ ATOM  151 ------------------------
     Tr[ns(151)] =   3.00000
     eigenvalues:
       0.500  0.500  0.500
     eigenvectors (columns):
       1.000  0.000  0.000
       0.000  1.000  0.000
       0.000  0.000  1.000
     occupation matrix ns (before diag.):
       0.500  0.000  0.000
       0.000  0.500  0.000
       0.000  0.000  0.500
     ------------------------ ATOM  152 ------------------------
[...]
   -20.4121 -20.4115 -20.4115 -20.4115 -20.4112 -20.4111 -20.4109 -20.4105
   -20.4105 -20.4105 -20.4104 -20.4102 -20.4100 -20.4100 -20.4096 -20.4096
   -20.4090 -20.4090 -20.4090 -20.4088 -20.4086 -20.4085 -20.4080 -20.4080
   -20.4079 -20.4078 -20.4078 -20.4076 -20.4076 -20.4075 -20.4070 -20.4070
   -20.4067 -20.4064 -20.4064 -20.4063 -20.4061 -20.4057 -20.4056 -20.4054
   -20.4053 -20.4051 -20.4048 -20.4046 -20.4045 -20.4044 -20.4043 -20.4043
   -20.4038 -20.4037 -20.4036 -20.4035 -20.4028 -20.4028 -20.4024 -20.4011
   -20.4010 -20.4008 -20.4008 -20.4007 -20.4006 -20.4006 -20.4004 -20.4003
   -20.4002 -20.4000 -20.3994 -20.3993 -20.3993 -20.3990 -20.3987 -20.3985
   -20.3985 -20.3984 -20.3983 -20.3983 -20.3981 -20.3981 -20.3975 -20.3974
   -20.3966 -20.3965 -20.3964 -20.3962 -20.3960 -20.3959 -20.3959 -20.3958
   -20.3958 -20.3957 -20.3956 -20.3955 -20.3951 -20.3951 -20.3946 -20.3941
   -20.3941 -20.3940 -20.3935 -20.3935 -20.3934 -20.3934 -20.3933 -20.3932
   -20.3932 -20.3930 -20.3929 -20.3928 -20.3927 -20.3926 -20.3925 -20.3922
   -20.3921 -20.3920 -20.3920 -20.3917 -20.3916 -20.3915 -20.3913 -20.3913
   -20.3912 -20.3912 -20.3910 -20.3908 -20.3905 -20.3898 -20.3895 -20.3893
   -20.3892 -20.3891 -20.3882 -20.3881 -20.3878 -20.3876 -20.3874 -20.3872
   -20.3870 -20.3870 -20.3870 -20.3868 -20.3865 -20.3864 -20.3862 -20.3859
   -20.3857 -20.3854 -20.3854 -20.3852 -20.3846 -20.3843 -20.3842 -20.3842
   -20.3829 -20.3824 -20.3823 -20.3822 -20.3814 -20.3813 -20.3813 -20.3810
   -20.3804 -20.3802 -20.3800 -20.3793 -20.3792 -20.3792 -20.3784 -20.3781
   -20.3780 -20.3777 -20.3773 -20.3768 -20.3764 -20.3764 -20.3750 -20.3749
   -20.3749 -20.3749 -20.3732 -20.3725 -20.3725 -20.3724 -20.3722 -20.3720
   -20.3720 -20.3719 -20.3715 -20.3702 -20.3698 -20.3685 -20.3681 -20.3674
   -20.3668 -20.3667 -20.3648 -20.3638 -20.3602 -20.3601 -20.3596 -20.3589
   -20.3567 -20.3530 -20.3526 -20.3484  -7.3807  -7.3709  -7.3641  -7.3618
    -7.3611  -7.3562  -7.3536  -7.3517  -7.3509  -7.3496  -7.3473  -7.3466
    -7.3457  -7.3444  -7.3426  -7.3398  -7.3394  -7.3391  -7.3377  -7.3374
    -7.3366  -7.3355  -7.3350  -7.3340  -7.3323  -7.3300  -7.3294  -7.3286
    -7.3271  -7.3266  -7.3261  -7.3246  -7.3244  -7.3233  -7.3227  -7.3224
    -7.3212  -7.3201  -7.3197  -7.3193  -7.3184  -7.3176  -7.3150  -7.3143
    -7.3137  -7.3130  -7.3120  -7.3111  -7.3100  -7.3084  -7.3055  -7.3044
    -7.3023  -7.3005  -7.3000  -7.2986  -7.2972  -7.2946  -7.2925  -7.2899
    -7.2887  -7.2878  -7.2873  -7.2853  -7.2845  -7.2839  -7.2832  -7.2825
    -7.2812  -7.2790  -7.2787  -7.2780  -7.2774  -7.2766  -7.2762  -7.2754
    -7.2751  -7.2750  -7.2738  -7.2734  -7.2719  -7.2719  -7.2702  -7.2702
    -7.2699  -7.2696  -7.2691  -7.2683  -7.2678  -7.2670  -7.2666  -7.2656
    -7.2651  -7.2649  -7.2644  -7.2640  -7.2627  -7.2619  -7.2617  -7.2614
    -7.2609  -7.2603  -7.2601  -7.2593  -7.2589  -7.2587  -7.2580  -7.2571
    -7.2569  -7.2567  -7.2561  -7.2555  -7.2552  -7.2544  -7.2539  -7.2536
    -7.2534  -7.2532  -7.2521  -7.2518  -7.2512  -7.2511  -7.2507  -7.2506
    -7.2502  -7.2487  -7.2486  -7.2481  -7.2476  -7.2470  -7.2466  -7.2460
    -7.2455  -7.2449  -7.2445  -7.2441  -7.2437  -7.2432  -7.2428  -7.2423
    -7.2416  -7.2415  -7.2410  -7.2404  -7.2401  -7.2396  -7.2389  -7.2388
    -7.2384  -7.2379  -7.2373  -7.2369  -7.2368  -7.2366  -7.2362  -7.2360
    -7.2354  -7.2351  -7.2342  -7.2337  -7.2332  -7.2328  -7.2326  -7.2320
    -7.2318  -7.2311  -7.2306  -7.2302  -7.2299  -7.2294  -7.2287  -7.2286
    -7.2282  -7.2279  -7.2279  -7.2277  -7.2270  -7.2265  -7.2260  -7.2257
    -7.2251  -7.2245  -7.2243  -7.2238  -7.2227  -7.2226  -7.2223  -7.2223
    -7.2221  -7.2218  -7.2217  -7.2215  -7.2210  -7.2205  -7.2199  -7.2198
    -7.2195  -7.2190  -7.2190  -7.2187  -7.2182  -7.2180  -7.2175  -7.2172
    -7.2170  -7.2165  -7.2163  -7.2162  -7.2157  -7.2150  -7.2146  -7.2145
    -7.2142  -7.2137  -7.2131  -7.2130  -7.2127  -7.2123  -7.2119  -7.2117
    -7.2112  -7.2110  -7.2106  -7.2103  -7.2099  -7.2096  -7.2095  -7.2093
    -7.2088  -7.2087  -7.2078  -7.2075  -7.2072  -7.2069  -7.2066  -7.2062
    -7.2057  -7.2055  -7.2050  -7.2048  -7.2046  -7.2044  -7.2040  -7.2032
    -7.2031  -7.2027  -7.2021  -7.2019  -7.2016  -7.2016  -7.2012  -7.2010
    -7.2003  -7.1998  -7.1994  -7.1990  -7.1989  -7.1985  -7.1981  -7.1980
    -7.1976  -7.1973  -7.1965  -7.1962  -7.1959  -7.1955  -7.1953  -7.1949
    -7.1943  -7.1938  -7.1936  -7.1930  -7.1929  -7.1923  -7.1920  -7.1917
    -7.1910  -7.1904  -7.1899  -7.1895  -7.1890  -7.1888  -7.1886  -7.1884
    -7.1879  -7.1878  -7.1874  -7.1873  -7.1863  -7.1859  -7.1856  -7.1851
    -7.1845  -7.1843  -7.1838  -7.1837  -7.1828  -7.1827  -7.1824  -7.1820
    -7.1817  -7.1814  -7.1811  -7.1803  -7.1801  -7.1798  -7.1794  -7.1788
    -7.1785  -7.1782  -7.1776  -7.1773  -7.1770  -7.1768  -7.1763  -7.1760
    -7.1755  -7.1752  -7.1748  -7.1747  -7.1743  -7.1739  -7.1736  -7.1734
    -7.1729  -7.1723  -7.1721  -7.1718  -7.1712  -7.1709  -7.1706  -7.1703
    -7.1695  -7.1693  -7.1687  -7.1681  -7.1678  -7.1674  -7.1671  -7.1670
    -7.1668  -7.1663  -7.1658  -7.1653  -7.1652  -7.1650  -7.1646  -7.1639
    -7.1638  -7.1638  -7.1632  -7.1627  -7.1624  -7.1620  -7.1614  -7.1612
    -7.1611  -7.1609  -7.1602  -7.1594  -7.1591  -7.1584  -7.1582  -7.1581
    -7.1579  -7.1573  -7.1572  -7.1564  -7.1559  -7.1554  -7.1552  -7.1550
    -7.1547  -7.1544  -7.1540  -7.1539  -7.1532  -7.1527  -7.1526  -7.1521
    -7.1518  -7.1512  -7.1508  -7.1504  -7.1502  -7.1501  -7.1499  -7.1491
    -7.1484  -7.1482  -7.1480  -7.1477  -7.1474  -7.1471  -7.1469  -7.1469
    -7.1464  -7.1459  -7.1456  -7.1453  -7.1449  -7.1449  -7.1446  -7.1442
    -7.1436  -7.1432  -7.1432  -7.1429  -7.1427  -7.1425  -7.1423  -7.1414
    -7.1411  -7.1408  -7.1405  -7.1398  -7.1398  -7.1394  -7.1389  -7.1387
    -7.1382  -7.1380  -7.1375  -7.1373  -7.1371  -7.1364  -7.1358  -7.1357
    -7.1351  -7.1350  -7.1346  -7.1343  -7.1339  -7.1335  -7.1333  -7.1332
    -7.1327  -7.1324  -7.1321  -7.1320  -7.1317  -7.1310  -7.1309  -7.1304
    -7.1302  -7.1298  -7.1295  -7.1292  -7.1289  -7.1287  -7.1285  -7.1279
    -7.1276  -7.1274  -7.1266  -7.1258  -7.1257  -7.1250  -7.1241  -7.1239
    -7.1233  -7.1229  -7.1227  -7.1215  -7.1211  -7.1207  -7.1203  -7.1199
    -7.1197  -7.1188  -7.1184  -7.1178  -7.1172  -7.1168  -7.1166  -7.1163
    -7.1157  -7.1153  -7.1148  -7.1143  -7.1138  -7.1133  -7.1132  -7.1131
    -7.1128  -7.1117  -7.1116  -7.1113  -7.1108  -7.1106  -7.1104  -7.1100
    -7.1094  -7.1093  -7.1089  -7.1083  -7.1078  -7.1073  -7.1067  -7.1064
    -7.1058  -7.1054  -7.1049  -7.1047  -7.1043  -7.1034  -7.1031  -7.1023
    -7.1019  -7.1002  -7.0994  -7.0984  -7.0981  -7.0975  -7.0959  -7.0942
    -7.0925  -7.0918  -7.0892  -7.0889  -7.0887  -7.0869  -7.0865  -7.0845
    -7.0815  -7.0812  -7.0791  -7.0784  -7.0712  -7.0674  -7.0666  -7.0646
    -7.0625  -7.0611  -7.0543  -7.0538  -7.0524  -7.0489  -7.0406  -7.0374
    -3.6133  -3.5294  -3.4550  -3.4370  -3.3838  -3.3006  -3.2906  -3.2522
    -3.2462  -3.2103  -3.1763  -3.1295  -3.0689  -3.0477  -3.0263  -3.0013
    -2.9733  -2.9581  -2.9173  -2.9092  -2.8836  -2.8625  -2.8307  -2.8109
    -2.8000  -2.7659  -2.7244  -2.6969  -2.6876  -2.6772  -2.6554  -2.6234
    -2.6079  -2.6041  -2.5858  -2.5782  -2.5307  -2.5236  -2.4986  -2.4716
    -2.4656  -2.4408  -2.4326  -2.4210  -2.3986  -2.3855  -2.3667  -2.3158
    -2.3119  -2.2807  -2.2690  -2.2410  -2.2266  -2.1793  -2.1159  -2.0651
    -2.0068  -1.9393  -1.8829  -1.8658  -1.8250  -1.8189  -1.7849  -1.7608
    -1.7128  -1.7006  -1.6764  -1.6606  -1.6255  -1.5973  -1.5893  -1.5748
    -1.5425  -1.5053  -1.4907  -1.4783  -1.4612  -1.4334  -1.4011  -1.3903
    -1.3398  -1.3258  -1.3039  -1.2897  -1.2620  -1.2471  -1.2335  -1.2016
    -1.1836  -1.1548  -1.1326  -1.1209  -1.1125  -1.0836  -1.0451  -1.0350
    -1.0173  -1.0140  -0.9961  -0.9882  -0.9578  -0.9297  -0.9087  -0.8745
    -0.8286  -0.8271  -0.7924  -0.7574   0.4912   0.5374   0.5650   0.5754
     0.7670   0.7706   0.7737   0.7760   0.7813   0.7901   0.8057   0.8067
     0.8180   0.8229   0.8310   0.8350   0.8363   0.8453   0.8461   0.8552
     0.8633   0.8698   0.8726   0.8768   0.8771   0.8884   0.8931   0.9047
     0.9114   0.9160   0.9202   0.9215   0.9311   0.9390   0.9434   0.9487
     0.9609   0.9651   0.9707   0.9799   0.9838   0.9904   1.0004   1.0135
     1.0209   1.0293   1.0347   1.0392   1.0478   1.0536   1.0600   1.0657
     1.0831   1.0875   1.0996   1.1071   1.1204   1.1238   1.1303   1.1425
     1.5739   1.6357   1.6536   1.6689   1.6719   1.6981   1.7337   1.7668
     1.7696   1.7860   1.8382   1.8598   1.8663   1.8959   1.9097   1.9333
     1.9373   1.9441   1.9943   2.0010   2.0221   2.0425   2.0473   2.0579
     2.0802   2.1048   2.1183   2.1323   2.8280   2.8427   2.8734   2.9343
     2.9354   3.0034   3.0312   3.0394   3.3753   3.4066   3.4301   3.4504
     3.4604   3.4695   3.4821   3.4970   3.5049   3.5218   3.5322   3.5463
     3.5550   3.5689   3.5851   3.6108   3.6699   3.6760   3.6814   3.6838
     3.6890   3.7085   3.7147   3.7172   3.7273   3.7328   3.7386   3.7569
     3.7592   3.7710   3.7844   3.7929   3.8299   3.8374   3.8528   3.8609
     3.9051   3.9254   3.9315   3.9404   3.9497   3.9563   3.9693   3.9744
     3.9840   3.9871   3.9932   4.0059   4.0199   4.0285   4.0449   4.0490
     4.0566   4.0678   4.0777   4.0978   4.2825   4.3012   4.3403   4.3762
     4.3857   4.3953   4.4151   4.4310   4.4510   4.4529   4.4628   4.4793
     4.4899   4.4958   4.5103   4.5133   4.5225   4.5402   4.5494   4.5645
     4.5728   4.5795   4.5871   4.6034   4.6159   4.6245   4.6333   4.6403
     4.6536   4.6550   4.6623   4.6761   4.6939   4.7129   4.7369   4.7560
     4.7740   4.7867   4.7908   4.7967   4.8013   4.8227   4.8270   4.8357
     4.8386   4.8538   4.8747   4.8797   4.8865   4.8995   4.9103   4.9155
     4.9253   4.9554   4.9566   4.9667   4.9711   4.9914   4.9949   4.9963
     5.0189   5.0264   5.0361   5.0423   5.0453   5.0634   5.0864   5.0925
     5.0979   5.1035   5.1185   5.1235   5.1288   5.1417   5.1550   5.1637
     5.1708   5.1829   5.1886   5.2118   5.2170   5.2422   5.2539   5.2648
     5.2679   5.2755   5.2881   5.2962   5.3176   5.3368   5.3485   5.3654
     5.3773   5.3890   5.3981   5.4121   5.4242   5.4271   5.4397   5.4439
     5.4465   5.4706   5.4759   5.5006   5.5027   5.5316   5.5359   5.5378
     5.5491   5.5519   5.5762   5.6079   5.6816   5.6862   5.7042   5.7193
     5.7316   5.7494   5.7801   5.7878   5.8007   5.8045   5.8349   5.8447
     5.8596   5.8764   5.8831   5.8980   5.9203   5.9324   5.9395   5.9515
     5.9653   5.9707   5.9847   5.9977   6.0075   6.0142   6.0200   6.0372
     6.0521   6.0715   6.1027   6.1053   6.1110   6.1251   6.1450   6.1596
     6.1726   6.1870   6.2187   6.2208   6.2483   6.2527   6.2709   6.2890
     6.3120   6.3357   6.3503   6.3675   6.3834   6.4047   6.4097   6.4234
     6.4565   6.5128   6.5361   6.5986   6.8502   6.8917   6.9634   7.0609
     8.4442   8.4705   8.4808   8.5577   8.5681   8.6341   8.6478   8.6806
     8.7010   8.7206   8.7434   8.7602   8.8595   8.9338   8.9493   8.9897
     9.0152   9.0346   9.0625   9.1210   9.1500   9.1828   9.1948   9.2121
     9.2483   9.2697   9.2744   9.2893   9.2948   9.3072   9.3161   9.3212
     9.3470   9.3579   9.3639   9.3722   9.3816   9.3851   9.3949   9.4109
     9.4234   9.4360   9.4427   9.4488   9.4650   9.4733   9.4843   9.4962
     9.5012   9.5060   9.5128   9.5328   9.5416   9.5542   9.5850   9.5875
     9.5952   9.6151   9.6326   9.6481   9.6545   9.6620   9.6753   9.6896
     9.6943   9.7035   9.7071   9.7137   9.7224   9.7263   9.7334   9.7399
     9.7577   9.7633   9.7703   9.7825   9.7898   9.7915   9.7916   9.7953
     9.8118   9.8166   9.8237   9.8286   9.8404   9.8425   9.8492   9.8646
     9.8696   9.8742   9.8842   9.8871   9.9040   9.9061   9.9110   9.9224
     9.9279   9.9377   9.9422   9.9457   9.9506   9.9680   9.9732   9.9951
    10.0009  10.0045  10.0514  10.0589  10.2584  10.2915  10.3081  10.3124
    10.3515  10.3758  10.3985  10.4072  10.4330  10.4549  10.4738  10.4935
    10.5230  10.5632  10.5877  10.6016  10.6161  10.6503  10.6696  10.6859
    10.6958  10.7035  10.7219  10.7586  10.7864  10.7965  10.8162  10.8796
    10.9067  10.9539  10.9724  10.9920  11.0074  11.0229  11.0362  11.0451
    11.0604  11.0940  11.1052  11.1210  11.1635  11.1826  11.1917  11.2020
    11.2285  11.2558  11.2611  11.2722  11.2836  11.3001  11.3181  11.3216
    11.3302  11.3407  11.3429  11.3477  11.3600  11.3677  11.3701  11.3744
    11.3870  11.4016  11.4128  11.4193  11.4341  11.4400  11.4447  11.4516
    11.4582  11.4649  11.4734  11.4825  11.4839  11.4941  11.5001  11.5157
    11.5200  11.5275  11.5323  11.5487  11.5707  11.5798  11.5864  11.5906
    11.6063  11.6188  11.6224  11.6404  11.6495  11.6596  11.6631  11.6679
    11.6765  11.6888  11.6954  11.6991  11.7147  11.7211  11.7306  11.7420
    11.7483  11.7576  11.7731  11.8308  11.8825  11.9022  11.9087  11.9174
    11.9257  11.9418  11.9455  11.9504  11.9527  11.9686  11.9744  11.9790
    11.9893  12.0123  12.0161  12.0324  12.0435  12.0555  12.0665  12.0874
    12.1008  12.1096  12.1205  12.1289  12.1375  12.1479  12.1611  12.1675
    12.1737  12.1799  12.1920  12.2176  12.2307  12.2408  12.2496  12.2681
    12.2756  12.2864  12.2915  12.3161  12.3206  12.3391  12.3430  12.3654
    12.3785  12.3898  12.4009  12.4096  12.4194  12.4307  12.4444  12.4485
    12.4640  12.4676  12.4721  12.4828  12.4923  12.5041  12.5187  12.5288
    12.5316  12.5511  12.5580  12.5691  12.5794  12.5870  12.5987  12.6139
    12.6237  12.6337  12.6505  12.6601  12.6873  12.7039  12.7161  12.7272
    12.7465  12.7548  12.7582  12.7732  12.7757  12.7907  12.7969  12.8071
    12.8115  12.8324  12.8335  12.8418  12.8502  12.8597  12.8723  12.8777
    12.8849  12.8928  12.8957  12.9103  12.9185  12.9245  12.9335  12.9361
    12.9428  12.9485  12.9627  12.9714  12.9785  12.9958  13.0002  13.0083
    13.0104  13.0218  13.0259  13.0443  13.0448  13.0516  13.0559  13.0661
    13.0759  13.0807  13.0871  13.1014  13.1078  13.1220  13.1281  13.1302
    13.1459  13.1486  13.1608  13.1810  13.1895  13.1946  13.2105  13.2302
    13.2386  13.2434  13.2620  13.2761  13.3154  13.3180  13.3436  13.3658
    13.6598  13.6804  13.6983  13.7046  13.7202  13.7280  13.7500  13.7598
    13.7742  13.7953  13.8115  13.8268  13.8388  13.8454  13.8617  13.8850
    13.8886  13.8981  13.9194  13.9283  13.9328  13.9433  13.9619  13.9684
    13.9702  13.9799  14.0003  14.0356  14.0384  14.0454  14.0767  14.0860
    14.1474  14.1682  14.1863  14.1966  14.2045  14.2462  14.2548  14.2657
    14.2762  14.3078  14.3201  14.3411  14.3429  14.3517  14.3546  14.3628
    14.3893  14.3941  14.3999  14.4240  14.4289  14.4315  14.4407  14.4649
    14.4655  14.4782  14.4994  14.5145  14.5171  14.5398  14.5578  14.5649
    14.5733  14.5833  14.6397  14.6564  14.6972  14.7155  14.7204  14.7423
    14.7464  14.7575  14.7746  14.7759  14.7824  14.8126  14.8349  14.8534
    14.8721  14.8948  14.9106  14.9517  14.9691  14.9950  15.0096  15.0691
    15.0814  15.0881  15.0927  15.1222  15.1359  15.1491  15.1571  15.1657
    15.1839  15.1891  15.2042  15.2080  15.2168  15.2209  15.2314  15.2375
    15.2498  15.2619  15.2742  15.2812  15.2914  15.2962  15.3095  15.3142
    15.3203  15.3249  15.3294  15.3341  15.3400  15.3517  15.3581  15.3632
    15.3693  15.3742  15.3877  15.3923  15.4003  15.4109  15.4215  15.4287
    15.4371  15.4392  15.4583  15.4714  15.4777  15.4904  15.4969  15.5014
    15.5182  15.5261  15.5358  15.5447  15.5608  15.5721  15.5836  15.6033
    15.6100  15.6219  15.6272  15.6383  15.6559  15.6625  15.6846  15.6919
    15.7063  15.7089  15.7143  15.7337  15.7460  15.7498  15.7558  15.7648
    15.7711  15.7808  15.7845  15.7925  15.8057  15.8087  15.8157  15.8273
    15.8326  15.8381  15.8473  15.8604  15.8640  15.8731  15.8833  15.9010
    15.9093  15.9208  15.9272  15.9399  15.9486  15.9617  15.9723  15.9923
    15.9944  16.0129  16.0178  16.0382  16.0664  16.0789  16.1007  16.1018
    16.1119  16.1199  16.1383  16.1413  16.1493  16.1613  16.1623  16.1736
    16.1816  16.1913  16.1982  16.2043  16.2150  16.2205  16.2290  16.2437
    16.2459  16.2581  16.2703  16.2713  16.2725  16.2864  16.2977  16.3040
    16.3202  16.3260  16.3312  16.3448  16.3546  16.3626  16.3813  16.4422
    16.4539  16.4806  16.4881  16.5243  16.5607  16.5734  16.6096  16.6235
    16.6303  16.6396  16.6456  16.6554  16.6640  16.6689  16.6769  16.6864
    16.6964  16.7005  16.7061  16.7101  16.7207  16.7250  16.7362  16.7377
    16.7418  16.7496  16.7612  16.7672  16.7777  16.7790  16.7862  16.8134
    16.9775  16.9921  17.0123  17.0257  17.0794  17.1088  17.1137  17.1239
    17.1300  17.1571  17.1675  17.1948  17.2168  17.2302  17.2529  17.2603
    17.2800  17.2984  17.3048  17.3086  17.3152  17.3262  17.3389  17.3412
    17.3640  17.3672  17.3730  17.3853  17.3859  17.3902  17.3981  17.4069
    17.4217  17.4247  17.4366  17.4483  17.4530  17.4641  17.4802  17.4893

     highest occupied, lowest unoccupied level (ev):     7.0814    7.2347

!    total energy              =  -35631.66945870 Ry
     estimated scf accuracy    <       0.00000593 Ry

     The total energy is the sum of the following terms:
     one-electron contribution =  -17775.63056291 Ry
     hartree contribution      =   10627.91079585 Ry
     xc contribution           =   -9354.62927940 Ry
     ewald contribution        =  -19131.54890196 Ry
     Hubbard energy            =       2.22848971 Ry

     convergence has been achieved in  12 iterations

     Writing all to output data dir ./tmp_In1.0Ga0.0As0.5Sb0.5_cube_3x3x3.3/In1.0Ga0.0As0.5Sb0.5_cube_3x3x3.3.save/ :
     XML data file, charge density, pseudopotentials, collected wavefunctions

     init_run     :    349.22s CPU    353.42s WALL (       1 calls)
     electrons    :  10944.52s CPU  10970.40s WALL (       1 calls)

     Called by init_run:
     wfcinit      :    338.29s CPU    342.10s WALL (       1 calls)
     potinit      :      2.26s CPU      2.34s WALL (       1 calls)
     hinit0       :      0.65s CPU      0.70s WALL (       1 calls)

     Called by electrons:
     c_bands      :  10447.37s CPU  10471.37s WALL (      13 calls)
     sum_band     :    490.47s CPU    491.31s WALL (      13 calls)
     v_of_rho     :      4.65s CPU      4.96s WALL (      13 calls)
     mix_rho      :      1.04s CPU      1.07s WALL (      13 calls)

     Called by c_bands:
     init_us_2    :     40.31s CPU     40.91s WALL (      28 calls)
     cegterg      :   9846.73s CPU   9869.28s WALL (      13 calls)

     Called by *egterg:
     cdiaghg      :    891.56s CPU    892.55s WALL (     119 calls)
     h_psi        :   6213.06s CPU   6225.37s WALL (     121 calls)
     g_psi        :      4.83s CPU      4.84s WALL (     107 calls)

     Called by h_psi:
     h_psi:calbec :    951.21s CPU    951.27s WALL (     121 calls)
     vloc_psi     :   1246.21s CPU   1248.68s WALL (     121 calls)
     add_vuspsi   :    933.31s CPU    936.45s WALL (     121 calls)
     vhpsi        :   3072.79s CPU   3072.98s WALL (     121 calls)

     General routines
     calbec       :   1204.26s CPU   1204.34s WALL (     256 calls)
     fft          :      2.78s CPU      3.11s WALL (     131 calls)
     ffts         :      0.28s CPU      0.28s WALL (      13 calls)
     fftw         :   1374.48s CPU   1377.11s WALL (  163448 calls)

     Parallel routines

     Hubbard U routines
     new_ns       :     65.55s CPU     65.56s WALL (      13 calls)
     vhpsi        :   3072.79s CPU   3072.98s WALL (     121 calls)

     PWSCF        :      3h 8m CPU      3h11m WALL


   This run was terminated on:   4:36:55  28Jan2026            

=------------------------------------------------------------------------------=
   JOB DONE.
=------------------------------------------------------------------------------=
